####################################################################### 
# 
# This file contains crystal structure data downloaded from the 
# Cambridge Structural Database (CSD) hosted by the Cambridge 
# Crystallographic Data Centre (CCDC).
# 
# Full information about CCDC data access policies and citation 
# guidelines are available at http://www.ccdc.cam.ac.uk/access/V1 
# 
# Audit and citation data items may have been added by the CCDC. 
# Please retain this information to preserve the provenance of 
# this file and to allow appropriate attribution of the data. 
# 
#######################################################################

data_r-3
_audit_block_doi                 10.5517/ccx28w3
_database_code_depnum_ccdc_archive 'CCDC 836345'
loop_
_citation_id
_citation_doi
_citation_year
1 10.1016/j.micromeso.2012.07.036 2013
_audit_update_record             
;
2011-07-23 deposited with the CCDC.	2024-07-06 downloaded from the CCDC.
;
#TrackingRef '1.cif'


_audit_creation_method           SHELXL-97
_chemical_name_systematic        
;
?
;
_chemical_name_common            ?
_chemical_melting_point          ?
_chemical_formula_moiety         ?
_chemical_formula_sum            'C324 Cr9 Cu27 O180'
_chemical_formula_weight         8954.82

loop_
_atom_type_symbol
_atom_type_description
_atom_type_scat_dispersion_real
_atom_type_scat_dispersion_imag
_atom_type_scat_source
C C 0.0033 0.0016 'International Tables Vol C Tables 4.2.6.8 and 6.1.1.4'
O O 0.0106 0.0060 'International Tables Vol C Tables 4.2.6.8 and 6.1.1.4'
Cr Cr 0.3209 0.6236 'International Tables Vol C Tables 4.2.6.8 and 6.1.1.4'
Cu Cu 0.3201 1.2651 'International Tables Vol C Tables 4.2.6.8 and 6.1.1.4'

_symmetry_cell_setting           Rhombohedral
_symmetry_space_group_name_H-M   R-3

loop_
_symmetry_equiv_pos_as_xyz
'x, y, z'
'-y, x-y, z'
'-x+y, -x, z'
'x+2/3, y+1/3, z+1/3'
'-y+2/3, x-y+1/3, z+1/3'
'-x+y+2/3, -x+1/3, z+1/3'
'x+1/3, y+2/3, z+2/3'
'-y+1/3, x-y+2/3, z+2/3'
'-x+y+1/3, -x+2/3, z+2/3'
'-x, -y, -z'
'y, -x+y, -z'
'x-y, x, -z'
'-x+2/3, -y+1/3, -z+1/3'
'y+2/3, -x+y+1/3, -z+1/3'
'x-y+2/3, x+1/3, -z+1/3'
'-x+1/3, -y+2/3, -z+2/3'
'y+1/3, -x+y+2/3, -z+2/3'
'x-y+1/3, x+2/3, -z+2/3'

_cell_length_a                   46.582(7)
_cell_length_b                   46.582(7)
_cell_length_c                   21.332(4)
_cell_angle_alpha                90.00
_cell_angle_beta                 90.00
_cell_angle_gamma                120.00
_cell_volume                     40087(11)
_cell_formula_units_Z            2
_cell_measurement_temperature    293(2)
_cell_measurement_reflns_used    ?
_cell_measurement_theta_min      -3
_cell_measurement_theta_max      24.4

_exptl_crystal_description       block
_exptl_crystal_colour            blue
_exptl_crystal_size_max          0.17
_exptl_crystal_size_mid          0.15
_exptl_crystal_size_min          0.09
_exptl_crystal_density_meas      ?
_exptl_crystal_density_diffrn    0.742
_exptl_crystal_density_method    'not measured'
_exptl_crystal_F_000             8766
_exptl_absorpt_coefficient_mu    0.861
_exptl_absorpt_correction_type   empirical
_exptl_absorpt_correction_T_min  0.8674
_exptl_absorpt_correction_T_max  0.9265
_exptl_absorpt_process_details   ?

_exptl_special_details           
;
?
;

_diffrn_ambient_temperature      293(2)
_diffrn_radiation_wavelength     0.71073
_diffrn_radiation_type           MoK\a
_diffrn_radiation_source         'fine-focus sealed tube'
_diffrn_radiation_monochromator  graphite
_diffrn_measurement_device_type  'CCD area detector'
_diffrn_measurement_method       'phi and omega scans'
_diffrn_detector_area_resol_mean ?
_diffrn_standards_number         ?
_diffrn_standards_interval_count ?
_diffrn_standards_interval_time  ?
_diffrn_standards_decay_%        none
_diffrn_reflns_number            14658
_diffrn_reflns_av_R_equivalents  0.0000
_diffrn_reflns_av_sigmaI/netI    0.0852
_diffrn_reflns_limit_h_min       -54
_diffrn_reflns_limit_h_max       26
_diffrn_reflns_limit_k_min       0
_diffrn_reflns_limit_k_max       54
_diffrn_reflns_limit_l_min       0
_diffrn_reflns_limit_l_max       24
_diffrn_reflns_theta_min         0.87
_diffrn_reflns_theta_max         24.41
_reflns_number_total             14658
_reflns_number_gt                6394
_reflns_threshold_expression     >2sigma(I)

_computing_data_collection       'SMART (Bruker, 2002)'
_computing_cell_refinement       'SAINT (Bruker, 2002)'
_computing_data_reduction        'SAINT (Bruker, 2002)'
_computing_structure_solution    'SHELXS-97 (Sheldrick, 2008)'
_computing_structure_refinement  'SHELXL-97 (Sheldrick, 2008)'
_computing_molecular_graphics    'SHELXL (Sheldrick, 2008)'
_computing_publication_material  'SHELXL-97 (Sheldrick, 2008)'

_refine_special_details          
;
Refinement of F^2^ against ALL reflections. The weighted R-factor wR and
goodness of fit S are based on F^2^, conventional R-factors R are based
on F, with F set to zero for negative F^2^. The threshold expression of
F^2^ > 2sigma(F^2^) is used only for calculating R-factors(gt) etc. and is
not relevant to the choice of reflections for refinement. R-factors based
on F^2^ are statistically about twice as large as those based on F, and R-
factors based on ALL data will be even larger.
;

_refine_ls_structure_factor_coef Fsqd
_refine_ls_matrix_type           full
_refine_ls_weighting_scheme      calc
_refine_ls_weighting_details     
'calc w=1/[\s^2^(Fo^2^)+(0.1000P)^2^+0.0200P] where P=(Fo^2^+2Fc^2^)/3'
_atom_sites_solution_primary     direct
_atom_sites_solution_secondary   difmap
_atom_sites_solution_hydrogens   none
_refine_ls_hydrogen_treatment    constr
_refine_ls_extinction_method     SHELXL
_refine_ls_extinction_coef       0.000000(7)
_refine_ls_extinction_expression Fc^*^=kFc[1+0.001xFc^2^\l^3^/sin(2\q)]^-1/4^
_refine_ls_number_reflns         14658
_refine_ls_number_parameters     471
_refine_ls_number_restraints     249
_refine_ls_R_factor_all          0.3285
_refine_ls_R_factor_gt           0.2276
_refine_ls_wR_factor_ref         0.5447
_refine_ls_wR_factor_gt          0.5075
_refine_ls_goodness_of_fit_ref   2.593
_refine_ls_restrained_S_all      2.599
_refine_ls_shift/su_max          2.854
_refine_ls_shift/su_mean         0.020

loop_
_atom_site_label
_atom_site_type_symbol
_atom_site_fract_x
_atom_site_fract_y
_atom_site_fract_z
_atom_site_U_iso_or_equiv
_atom_site_adp_type
_atom_site_occupancy
_atom_site_symmetry_multiplicity
_atom_site_calc_flag
_atom_site_refinement_flags
_atom_site_disorder_assembly
_atom_site_disorder_group
C29 C 0.55290(14) 0.68252(17) 0.6710(4) 0.121(5) Uani 1 1 d GDU . .
C30 C 0.54749(14) 0.70288(17) 0.6310(4) 0.119(5) Uani 1 1 d GU . .
C31 C 0.51671(14) 0.70090(19) 0.6297(5) 0.117(4) Uani 1 1 d GDU . .
C33 C 0.49135(14) 0.6785(2) 0.6684(5) 0.109(4) Uani 1 1 d GU . .
C34 C 0.49676(14) 0.65818(19) 0.7084(5) 0.112(4) Uani 1 1 d GDU . .
C35 C 0.52754(15) 0.66016(18) 0.7097(4) 0.118(5) Uani 1 1 d GU . .
C21 C 0.68182(18) 0.66721(15) 0.6922(4) 0.122(5) Uani 1 1 d GU . .
C20 C 0.65376(19) 0.64215(15) 0.7306(5) 0.127(5) Uani 1 1 d GDU . .
C26 C 0.62673(18) 0.64524(14) 0.7265(4) 0.126(5) Uani 1 1 d GU . .
C25 C 0.62037(16) 0.66239(14) 0.6849(4) 0.136(6) Uani 1 1 d GDU . .
C24 C 0.64830(15) 0.69444(14) 0.6536(3) 0.141(6) Uani 1 1 d GU . .
C22 C 0.67664(16) 0.68934(14) 0.6535(4) 0.127(5) Uani 1 1 d GU . .
C12 C 0.85035(17) 0.97309(15) 0.6926(5) 0.145(6) Uani 1 1 d GU . .
C11 C 0.82377(16) 0.94398(15) 0.6620(4) 0.140(6) Uani 1 1 d GDU . .
C17 C 0.80165(18) 0.95312(15) 0.6264(5) 0.143(6) Uani 1 1 d GU . .
C16 C 0.80597(19) 0.98127(15) 0.6103(5) 0.138(6) Uani 1 1 d GDU . .
C15 C 0.8231(2) 1.00833(14) 0.6585(6) 0.135(5) Uani 1 1 d GU . .
C13 C 0.84874(19) 1.00511(15) 0.6989(5) 0.137(5) Uani 1 1 d GDU . .
C8 C 0.86405(14) 0.87458(18) 0.7197(4) 0.117(10) Uani 1 1 d G . .
C2 C 0.86272(14) 0.84483(19) 0.7171(5) 0.099(5) Uani 1 1 d GDU . .
C3 C 0.83913(14) 0.81770(18) 0.6788(5) 0.110(5) Uani 1 1 d GU . .
C4 C 0.81478(14) 0.82032(17) 0.6398(4) 0.122(5) Uani 1 1 d GU . .
C6 C 0.82181(14) 0.85601(17) 0.6262(4) 0.133(5) Uani 1 1 d GU . .
C7 C 0.84053(14) 0.87989(17) 0.6713(4) 0.132(6) Uani 1 1 d GDU . .
Cu1 Cu 0.73586(7) 0.76497(7) 0.50402(13) 0.0843(9) Uani 1 1 d . . .
Cu2 Cu 0.76781(8) 0.73078(8) 0.52970(13) 0.0961(11) Uani 1 1 d . . .
Cu3 Cu 0.91063(8) 0.79949(8) 0.82126(16) 0.0927(11) Uani 1 1 d . . .
Cr1 Cr 0.94348(7) 0.86685(8) 0.84624(17) 0.0696(11) Uani 1 1 d D . .
O12 O 0.7045(4) 0.7352(4) 0.5752(6) 0.096(5) Uani 1 1 d . . .
O4 O 0.7682(5) 0.7969(4) 0.5704(7) 0.113(5) Uani 1 1 d . . .
O11 O 0.7317(3) 0.7067(3) 0.5946(7) 0.096(5) Uani 1 1 d . . .
O3 O 0.7959(4) 0.7683(4) 0.5908(8) 0.113(6) Uani 1 1 d . . .
O20 O 0.7102(8) 0.7931(8) 0.4875(7) 0.243(16) Uani 1 1 d . . .
O18 O 0.8862(7) 0.7450(5) 0.7972(8) 0.197(12) Uani 1 1 d . . .
C23 C 0.7006(8) 0.7137(9) 0.6136(13) 0.138(7) Uani 1 1 d U . .
C9 C 0.8448(9) 0.9143(6) 0.688(2) 0.167(14) Uani 1 1 d D . .
O17 O 0.9693(7) 0.9210(7) 0.8641(11) 0.186(9) Uani 1 1 d . . .
C28 C 0.5888(6) 0.6894(11) 0.6620(14) 0.19(2) Uani 1 1 d D . .
O19 O 0.7910(7) 0.6989(7) 0.5487(11) 0.211(12) Uani 1 1 d . . .
C5 C 0.7897(8) 0.7913(7) 0.6019(14) 0.128(6) Uani 1 1 d U . .
C27 C 0.5916(6) 0.6686(7) 0.6990(15) 0.19(2) Uani 1 1 d D . .
C10 C 0.8238(9) 0.9119(5) 0.6501(14) 0.124(10) Uani 1 1 d D . .
C36 C 0.4690(5) 0.6334(5) 0.7487(11) 0.114(6) Uani 1 1 d DU . .
O2 O 0.8867(4) 0.8103(7) 0.7661(11) 0.189(11) Uani 1 1 d . . .
O1 O 0.9135(3) 0.8618(3) 0.7946(7) 0.28(2) Uani 1 1 d D . .
C1 C 0.8904(6) 0.8436(6) 0.7488(12) 0.097(5) Uani 1 1 d DU . .
C18 C 0.7811(7) 0.9810(7) 0.5601(13) 0.148(7) Uani 1 1 d DU . .
C19 C 0.6537(6) 0.6178(6) 0.7773(11) 0.128(7) Uani 1 1 d DU . .
C14 C 0.8689(6) 1.0309(5) 0.7442(12) 0.140(7) Uani 1 1 d DU . .
O5 O 0.8916(3) 1.0266(4) 0.7760(5) 0.080(4) Uani 1 1 d D . .
O6 O 0.8653(4) 1.0575(5) 0.7577(11) 0.145(8) Uani 1 1 d D . .
O13 O 0.4753(3) 0.6126(3) 0.7795(6) 0.085(4) Uani 1 1 d D . .
O14 O 0.4408(4) 0.6344(4) 0.7570(11) 0.149(8) Uani 1 1 d D . .
O9 O 0.6866(6) 0.6228(3) 0.7800(9) 0.36(3) Uani 1 1 d D . .
O10 O 0.6352(3) 0.5918(2) 0.8174(7) 0.118(7) Uani 1 1 d D . .
O8 O 0.7892(3) 1.0152(7) 0.5552(10) 0.37(3) Uani 1 1 d D . .
O7 O 0.7553(2) 0.9665(3) 0.5153(9) 0.138(8) Uani 1 1 d D . .
C32 C 0.5149(7) 0.7271(5) 0.5893(12) 0.116(6) Uani 1 1 d DU . .
O16 O 0.5306(4) 0.7527(6) 0.5349(14) 0.240(19) Uani 1 1 d . . .
O15 O 0.9106(6) 0.8584(5) 0.8883(10) 0.157(8) Uiso 1 1 d . . .

loop_
_atom_site_aniso_label
_atom_site_aniso_U_11
_atom_site_aniso_U_22
_atom_site_aniso_U_33
_atom_site_aniso_U_23
_atom_site_aniso_U_13
_atom_site_aniso_U_12
C29 0.125(9) 0.108(10) 0.129(11) 0.018(8) 0.007(9) 0.057(8)
C30 0.126(9) 0.104(9) 0.126(11) 0.017(8) 0.006(9) 0.057(8)
C31 0.129(9) 0.095(9) 0.122(10) 0.017(7) 0.007(8) 0.054(8)
C33 0.120(9) 0.093(9) 0.116(10) 0.018(7) 0.003(8) 0.056(8)
C34 0.115(9) 0.101(9) 0.113(10) 0.025(7) -0.005(8) 0.048(8)
C35 0.121(9) 0.104(9) 0.130(11) 0.017(8) 0.003(9) 0.056(8)
C21 0.116(10) 0.215(14) 0.073(9) 0.035(9) -0.001(8) 0.111(10)
C20 0.116(9) 0.219(13) 0.084(9) 0.027(9) 0.010(8) 0.112(10)
C26 0.114(10) 0.220(14) 0.095(10) 0.027(9) 0.006(8) 0.123(10)
C25 0.122(10) 0.223(14) 0.101(10) 0.027(10) 0.008(9) 0.114(10)
C24 0.121(10) 0.228(14) 0.098(10) 0.030(10) -0.004(9) 0.104(10)
C22 0.118(10) 0.213(14) 0.087(9) 0.029(9) 0.006(8) 0.111(10)
C12 0.132(10) 0.115(9) 0.141(11) 0.011(9) -0.053(9) 0.027(8)
C11 0.131(11) 0.116(9) 0.139(12) 0.013(9) -0.063(9) 0.035(9)
C17 0.139(10) 0.115(9) 0.140(11) 0.015(9) -0.062(9) 0.036(9)
C16 0.129(10) 0.113(9) 0.135(11) 0.012(9) -0.058(8) 0.033(9)
C15 0.119(10) 0.110(9) 0.131(11) 0.013(9) -0.054(8) 0.023(8)
C13 0.121(10) 0.112(9) 0.132(11) 0.013(9) -0.055(8) 0.024(8)
C8 0.110(18) 0.057(13) 0.19(3) -0.007(15) -0.050(19) 0.045(13)
C2 0.108(10) 0.101(10) 0.115(11) -0.034(8) -0.031(8) 0.072(9)
C3 0.126(10) 0.116(9) 0.114(11) -0.040(8) -0.043(8) 0.080(8)
C4 0.141(10) 0.123(9) 0.125(11) -0.035(8) -0.056(8) 0.082(9)
C6 0.158(12) 0.126(10) 0.141(12) -0.039(9) -0.051(10) 0.091(10)
C7 0.152(14) 0.133(11) 0.145(14) -0.042(11) -0.049(11) 0.095(11)
Cu1 0.0904(19) 0.0901(19) 0.0821(18) 0.0193(15) -0.0110(16) 0.0523(16)
Cu2 0.105(2) 0.100(2) 0.096(2) 0.0385(18) -0.0236(18) 0.0607(19)
Cu3 0.101(2) 0.0748(19) 0.114(2) -0.0315(17) -0.0123(19) 0.0530(17)
Cr1 0.0518(18) 0.072(2) 0.090(2) -0.0407(18) -0.0235(18) 0.0350(17)
O12 0.153(14) 0.106(11) 0.043(8) 0.009(8) 0.038(8) 0.075(11)
O4 0.157(15) 0.162(15) 0.055(9) -0.004(9) 0.008(10) 0.104(13)
O11 0.091(10) 0.086(10) 0.115(12) 0.043(9) 0.004(9) 0.046(8)
O3 0.096(11) 0.125(13) 0.142(15) -0.070(11) -0.037(10) 0.073(10)
O20 0.44(4) 0.45(4) 0.045(10) 0.041(16) -0.043(16) 0.38(4)
O18 0.30(3) 0.104(14) 0.076(12) -0.003(11) 0.035(15) 0.018(16)
C23 0.137(12) 0.202(16) 0.090(12) 0.036(12) -0.003(10) 0.096(12)
C9 0.16(3) 0.19(4) 0.19(4) -0.03(3) -0.04(3) 0.12(3)
O17 0.23(3) 0.22(3) 0.148(19) 0.011(18) 0.005(18) 0.15(2)
C28 0.22(4) 0.30(5) 0.13(3) 0.15(3) 0.15(3) 0.20(4)
O19 0.33(3) 0.32(3) 0.158(19) -0.03(2) 0.01(2) 0.29(3)
C5 0.141(12) 0.127(11) 0.126(13) -0.044(10) -0.058(10) 0.074(11)
C27 0.16(3) 0.13(3) 0.21(4) -0.10(3) 0.06(3) 0.01(2)
C10 0.17(3) 0.102(19) 0.12(2) 0.001(17) 0.00(2) 0.09(2)
C36 0.114(11) 0.090(11) 0.122(12) 0.021(9) -0.005(10) 0.039(10)
O2 0.059(10) 0.27(3) 0.20(2) -0.07(2) 0.048(12) 0.054(14)
O1 0.32(3) 0.005(6) 0.37(3) -0.008(12) 0.34(3) -0.025(11)
C1 0.118(12) 0.085(10) 0.122(13) -0.023(10) -0.027(9) 0.076(10)
C18 0.138(13) 0.126(12) 0.130(13) 0.025(11) -0.057(10) 0.028(11)
C19 0.122(12) 0.213(16) 0.069(11) 0.038(11) 0.012(10) 0.099(12)
C14 0.109(12) 0.111(11) 0.129(13) 0.013(10) -0.049(10) 0.002(11)
O5 0.089(9) 0.123(11) 0.042(7) -0.002(7) -0.017(7) 0.064(9)
O6 0.075(11) 0.157(17) 0.22(2) 0.005(16) -0.024(13) 0.071(12)
O13 0.104(10) 0.092(10) 0.067(9) -0.011(8) -0.018(8) 0.056(9)
O14 0.131(14) 0.114(13) 0.25(2) 0.079(15) 0.064(15) 0.095(12)
O9 0.62(5) 0.000(6) 0.29(3) 0.007(10) 0.41(3) 0.021(13)
O10 0.073(8) 0.024(6) 0.168(14) -0.072(8) 0.106(9) -0.043(5)
O8 0.000(6) 0.65(6) 0.26(3) -0.37(3) 0.018(10) 0.021(14)
O7 0.001(5) 0.056(8) 0.30(2) -0.093(11) 0.024(9) -0.029(5)
C32 0.140(12) 0.083(10) 0.118(12) 0.007(8) -0.008(11) 0.049(9)
O16 0.079(11) 0.17(2) 0.30(3) -0.19(2) 0.131(16) -0.067(12)

_geom_special_details            
;
All esds (except the esd in the dihedral angle between two l.s. planes)
are estimated using the full covariance matrix. The cell esds are taken
into account individually in the estimation of esds in distances, angles
and torsion angles; correlations between esds in cell parameters are only
used when they are defined by crystal symmetry. An approximate (isotropic)
treatment of cell esds is used for estimating esds involving l.s. planes.
;

loop_
_geom_bond_atom_site_label_1
_geom_bond_atom_site_label_2
_geom_bond_distance
_geom_bond_site_symmetry_2
_geom_bond_publ_flag
C29 C30 1.3900 . ?
C29 C35 1.3900 . ?
C29 C28 1.549(17) . ?
C30 C31 1.3900 . ?
C31 C33 1.3900 . ?
C31 C32 1.530(16) . ?
C33 C34 1.3900 . ?
C34 C35 1.3900 . ?
C34 C36 1.499(15) . ?
C21 C22 1.4324 . ?
C21 C20 1.4882 . ?
C20 C26 1.3400 . ?
C20 C19 1.508(15) . ?
C26 C25 1.3230 . ?
C25 C27 1.535(18) . ?
C25 C24 1.5569 . ?
C24 C22 1.4534 . ?
C22 C23 1.41(3) . ?
C12 C11 1.4558 . ?
C12 C13 1.5363 . ?
C11 C17 1.5023 . ?
C11 C10 1.519(13) . ?
C17 C16 1.2702 . ?
C16 C15 1.5079 . ?
C16 C18 1.574(15) . ?
C15 C13 1.5396 . ?
C13 C14 1.459(16) . ?
C8 C2 1.3574 . ?
C8 C7 1.6117 . ?
C2 C3 1.4432 . ?
C2 C1 1.480(15) . ?
C3 C4 1.4596 . ?
C4 C5 1.51(3) . ?
C4 C6 1.5525 . ?
C6 C7 1.3972 . ?
C7 C9 1.556(18) . ?
Cu1 O9 1.89(3) 8_654 ?
Cu1 O8 2.01(3) 12_656 ?
Cu1 O4 2.060(17) . ?
Cu1 O12 2.084(14) . ?
Cu1 O20 2.201(18) . ?
Cu1 Cu2 2.724(4) . ?
Cu2 O7 1.436(18) 12_656 ?
Cu2 O10 1.483(17) 8_654 ?
Cu2 O11 2.031(15) . ?
Cu2 O3 2.043(15) . ?
Cu2 O19 2.268(18) . ?
Cu3 O16 1.49(4) 6_565 ?
Cu3 O2 1.86(3) . ?
Cu3 O6 1.90(2) 2_765 ?
Cu3 O13 2.093(15) 17_556 ?
Cu3 O18 2.261(19) . ?
Cu3 Cr1 2.770(4) . ?
Cr1 O15 1.64(2) . ?
Cr1 O1 1.701(18) . ?
Cr1 O14 1.883(18) 17_556 ?
Cr1 O5 2.077(13) 2_765 ?
Cr1 O17 2.22(3) . ?
O12 C23 1.23(3) . ?
O4 C5 1.34(3) . ?
O11 C23 1.68(3) . ?
O3 C5 1.26(3) . ?
C9 C10 1.23(4) . ?
C28 C27 1.305(18) . ?
C36 O13 1.319(16) . ?
C36 O14 1.350(16) . ?
O2 C1 1.52(3) . ?
O1 C1 1.38(2) . ?
C18 O7 1.415(16) . ?
C18 O8 1.446(19) . ?
C19 O10 1.378(16) . ?
C19 O9 1.432(18) . ?
C14 O5 1.353(16) . ?
C14 O6 1.366(16) . ?
O5 Cr1 2.077(13) 3_675 ?
O6 Cu3 1.90(2) 3_675 ?
O13 Cu3 2.093(15) 18_546 ?
O14 Cr1 1.883(18) 18_546 ?
O9 Cu1 1.89(3) 6_565 ?
O10 Cu2 1.482(17) 6_565 ?
O8 Cu1 2.01(3) 11_566 ?
O7 Cu2 1.436(18) 11_566 ?
C32 O16 1.56(4) . ?
C32 O15 1.85(3) 8_654 ?
O16 Cu3 1.49(4) 8_654 ?
O15 C32 1.85(3) 6_565 ?

loop_
_geom_angle_atom_site_label_1
_geom_angle_atom_site_label_2
_geom_angle_atom_site_label_3
_geom_angle
_geom_angle_site_symmetry_1
_geom_angle_site_symmetry_3
_geom_angle_publ_flag
C30 C29 C35 120.0 . . ?
C30 C29 C28 109.1(10) . . ?
C35 C29 C28 130.8(10) . . ?
C31 C30 C29 120.0 . . ?
C30 C31 C33 120.0 . . ?
C30 C31 C32 115.1(12) . . ?
C33 C31 C32 124.6(12) . . ?
C34 C33 C31 120.0 . . ?
C33 C34 C35 120.0 . . ?
C33 C34 C36 119.7(8) . . ?
C35 C34 C36 120.2(8) . . ?
C34 C35 C29 120.0 . . ?
C22 C21 C20 118.9 . . ?
C26 C20 C21 112.6 . . ?
C26 C20 C19 118.4(10) . . ?
C21 C20 C19 128.6(10) . . ?
C25 C26 C20 127.9 . . ?
C26 C25 C27 117.6(13) . . ?
C26 C25 C24 122.3 . . ?
C27 C25 C24 107.0(11) . . ?
C22 C24 C25 103.6 . . ?
C23 C22 C21 125.2(12) . . ?
C23 C22 C24 106.7(12) . . ?
C21 C22 C24 127.6 . . ?
C11 C12 C13 120.8 . . ?
C12 C11 C17 110.3 . . ?
C12 C11 C10 125.0(14) . . ?
C17 C11 C10 122.2(13) . . ?
C16 C17 C11 130.7 . . ?
C17 C16 C15 115.1 . . ?
C17 C16 C18 116.0(11) . . ?
C15 C16 C18 123.4(12) . . ?
C16 C15 C13 114.4 . . ?
C14 C13 C12 122.1(9) . . ?
C14 C13 C15 120.2(9) . . ?
C12 C13 C15 117.5 . . ?
C2 C8 C7 116.3 . . ?
C8 C2 C3 122.9 . . ?
C8 C2 C1 115.0(10) . . ?
C3 C2 C1 121.4(10) . . ?
C2 C3 C4 122.1 . . ?
C3 C4 C5 121.1(13) . . ?
C3 C4 C6 116.1 . . ?
C5 C4 C6 121.0(13) . . ?
C7 C6 C4 115.9 . . ?
C6 C7 C9 133.4(15) . . ?
C6 C7 C8 121.4 . . ?
C9 C7 C8 105.2(15) . . ?
O9 Cu1 O8 94.1(6) 8_654 12_656 ?
O9 Cu1 O4 168.1(8) 8_654 . ?
O8 Cu1 O4 84.5(6) 12_656 . ?
O9 Cu1 O12 88.5(6) 8_654 . ?
O8 Cu1 O12 164.4(7) 12_656 . ?
O4 Cu1 O12 89.8(6) . . ?
O9 Cu1 O20 96.2(10) 8_654 . ?
O8 Cu1 O20 99.0(10) 12_656 . ?
O4 Cu1 O20 95.7(9) . . ?
O12 Cu1 O20 96.0(8) . . ?
O9 Cu1 Cu2 85.7(6) 8_654 . ?
O8 Cu1 Cu2 82.3(6) 12_656 . ?
O4 Cu1 Cu2 82.4(5) . . ?
O12 Cu1 Cu2 82.6(4) . . ?
O20 Cu1 Cu2 177.6(5) . . ?
O7 Cu2 O10 95.2(7) 12_656 8_654 ?
O7 Cu2 O11 160.3(7) 12_656 . ?
O10 Cu2 O11 84.3(6) 8_654 . ?
O7 Cu2 O3 81.8(8) 12_656 . ?
O10 Cu2 O3 160.5(7) 8_654 . ?
O11 Cu2 O3 92.1(7) . . ?
O7 Cu2 O19 106.4(9) 12_656 . ?
O10 Cu2 O19 101.5(9) 8_654 . ?
O11 Cu2 O19 92.9(8) . . ?
O3 Cu2 O19 97.8(9) . . ?
O7 Cu2 Cu1 75.8(5) 12_656 . ?
O10 Cu2 Cu1 74.5(5) 8_654 . ?
O11 Cu2 Cu1 85.2(4) . . ?
O3 Cu2 Cu1 86.1(5) . . ?
O19 Cu2 Cu1 175.8(8) . . ?
O16 Cu3 O2 82.2(8) 6_565 . ?
O16 Cu3 O6 164.3(9) 6_565 2_765 ?
O2 Cu3 O6 90.3(8) . 2_765 ?
O16 Cu3 O13 94.7(7) 6_565 17_556 ?
O2 Cu3 O13 161.3(9) . 17_556 ?
O6 Cu3 O13 88.0(7) 2_765 17_556 ?
O16 Cu3 O18 106.4(10) 6_565 . ?
O2 Cu3 O18 97.4(11) . . ?
O6 Cu3 O18 88.2(8) 2_765 . ?
O13 Cu3 O18 101.2(8) 17_556 . ?
O16 Cu3 Cr1 76.9(7) 6_565 . ?
O2 Cu3 Cr1 83.1(8) . . ?
O6 Cu3 Cr1 88.5(5) 2_765 . ?
O13 Cu3 Cr1 78.2(4) 17_556 . ?
O18 Cu3 Cr1 176.7(7) . . ?
O15 Cr1 O1 73.6(9) . . ?
O15 Cr1 O14 97.6(11) . 17_556 ?
O1 Cr1 O14 163.9(7) . 17_556 ?
O15 Cr1 O5 161.4(9) . 2_765 ?
O1 Cr1 O5 92.8(6) . 2_765 ?
O14 Cr1 O5 92.4(8) 17_556 2_765 ?
O15 Cr1 O17 95.1(10) . . ?
O1 Cr1 O17 102.2(8) . . ?
O14 Cr1 O17 91.9(8) 17_556 . ?
O5 Cr1 O17 100.1(7) 2_765 . ?
O15 Cr1 Cu3 85.0(8) . . ?
O1 Cr1 Cu3 76.5(4) . . ?
O14 Cr1 Cu3 89.4(5) 17_556 . ?
O5 Cr1 Cu3 79.5(4) 2_765 . ?
O17 Cr1 Cu3 178.6(7) . . ?
C23 O12 Cu1 142.3(18) . . ?
C5 O4 Cu1 123.6(16) . . ?
C23 O11 Cu2 127.7(13) . . ?
C5 O3 Cu2 121.8(15) . . ?
O12 C23 C22 142(3) . . ?
O12 C23 O11 102(2) . . ?
C22 C23 O11 114(2) . . ?
C10 C9 C7 93.7(18) . . ?
C27 C28 C29 105.7(17) . . ?
O3 C5 O4 126(2) . . ?
O3 C5 C4 117(2) . . ?
O4 C5 C4 115(2) . . ?
C28 C27 C25 116(2) . . ?
C9 C10 C11 100.9(19) . . ?
O13 C36 O14 122.4(15) . . ?
O13 C36 C34 115.4(15) . . ?
O14 C36 C34 121.9(15) . . ?
C1 O2 Cu3 131.0(15) . . ?
C1 O1 Cr1 151.2(12) . . ?
O1 C1 C2 136.5(17) . . ?
O1 C1 O2 96.2(15) . . ?
C2 C1 O2 119.7(18) . . ?
O7 C18 O8 99.7(13) . . ?
O7 C18 C16 156(2) . . ?
O8 C18 C16 104.6(19) . . ?
O10 C19 O9 105.4(13) . . ?
O10 C19 C20 147(2) . . ?
O9 C19 C20 107.9(17) . . ?
O5 C14 O6 119.4(15) . . ?
O5 C14 C13 116.1(16) . . ?
O6 C14 C13 124.4(17) . . ?
C14 O5 Cr1 127.5(11) . 3_675 ?
C14 O6 Cu3 125.0(13) . 3_675 ?
C36 O13 Cu3 126.6(12) . 18_546 ?
C36 O14 Cr1 122.5(13) . 18_546 ?
C19 O9 Cu1 118.9(9) . 6_565 ?
C19 O10 Cu2 155.3(15) . 6_565 ?
C18 O8 Cu1 121.5(11) . 11_566 ?
C18 O7 Cu2 160.6(16) . 11_566 ?
C31 C32 O16 147(3) . . ?
C31 C32 O15 120.5(18) . 8_654 ?
O16 C32 O15 84.3(16) . 8_654 ?
Cu3 O16 C32 158(2) 8_654 . ?
Cr1 O15 C32 129.5(14) . 6_565 ?

_diffrn_measured_fraction_theta_max 0.999
_diffrn_reflns_theta_full        24.41
_diffrn_measured_fraction_theta_full 0.999
_refine_diff_density_max         1.901
_refine_diff_density_min         -1.532
_refine_diff_density_rms         0.154


