####################################################################### 
# 
# This file contains crystal structure data downloaded from the 
# Cambridge Structural Database (CSD) hosted by the Cambridge 
# Crystallographic Data Centre (CCDC).
# 
# Full information about CCDC data access policies and citation 
# guidelines are available at http://www.ccdc.cam.ac.uk/access/V1 
# 
# Audit and citation data items may have been added by the CCDC. 
# Please retain this information to preserve the provenance of 
# this file and to allow appropriate attribution of the data. 
# 
#######################################################################

data_010614a
_audit_block_doi                 10.5517/cc61bfz
_database_code_depnum_ccdc_archive 'CCDC 180030'
_audit_update_record             
;
2002-02-21 deposited with the CCDC.	2024-07-08 downloaded from the CCDC.
;
#pub_requested_journal    Journal of Polish Chemistry
#Name of contact person   Dr. Handong Yin
#Address of contact person:
#Department of Chemistry
#Liaocheng University
#Shandong Liaocheng 252059, P.R. China
#E-mail address of contact person:   wdq69@263.net

#This is a private communication. 

_audit_creation_method           SHELXL-97
_chemical_name_systematic        
; 
? 
;
_chemical_name_common            ?
_chemical_melting_point          ?
_chemical_formula_moiety         ?
_chemical_formula_sum            'C113 O10 Sn5'
_chemical_formula_weight         2110.58

loop_
_atom_type_symbol
_atom_type_description
_atom_type_scat_dispersion_real
_atom_type_scat_dispersion_imag
_atom_type_scat_source
Sn Sn -0.6537 1.4246 'International Tables Vol C Tables 4.2.6.8 and 6.1.1.4'
C C 0.0033 0.0016 'International Tables Vol C Tables 4.2.6.8 and 6.1.1.4'
O O 0.0106 0.0060 'International Tables Vol C Tables 4.2.6.8 and 6.1.1.4'

_symmetry_cell_setting           Orthorhombic
_symmetry_space_group_name_H-M   C222(1)

loop_
_symmetry_equiv_pos_as_xyz
'x, y, z'
'-x, -y, z+1/2'
'-x, y, -z+1/2'
'x, -y, -z'
'x+1/2, y+1/2, z'
'-x+1/2, -y+1/2, z+1/2'
'-x+1/2, y+1/2, -z+1/2'
'x+1/2, -y+1/2, -z'

_cell_length_a                   15.003(4)
_cell_length_b                   47.821(13)
_cell_length_c                   28.789(8)
_cell_angle_alpha                90.00
_cell_angle_beta                 90.00
_cell_angle_gamma                90.00
_cell_volume                     20655(10)
_cell_formula_units_Z            24
_cell_measurement_temperature    293(2)
_cell_measurement_reflns_used    ?
_cell_measurement_theta_min      ?
_cell_measurement_theta_max      ?

_exptl_crystal_description       ?
_exptl_crystal_colour            ?
_exptl_crystal_size_max          .15
_exptl_crystal_size_mid          .2
_exptl_crystal_size_min          .2
_exptl_crystal_density_meas      ?
_exptl_crystal_density_diffrn    4.072
_exptl_crystal_density_method    'not measured'
_exptl_crystal_F_000             24192
_exptl_absorpt_coefficient_mu    3.738
_exptl_absorpt_correction_type   none
_exptl_absorpt_correction_T_min  ?
_exptl_absorpt_correction_T_max  ?
_exptl_absorpt_process_details   ?

_exptl_special_details           
; 
? 
;

_diffrn_ambient_temperature      293(2)
_diffrn_radiation_wavelength     0.71073
_diffrn_radiation_type           MoK\a
_diffrn_radiation_source         'fine-focus sealed tube'
_diffrn_radiation_monochromator  graphite
_diffrn_measurement_device_type  'CCD area detector'
_diffrn_measurement_method       'phi and omega scans'
_diffrn_detector_area_resol_mean ?
_diffrn_standards_number         ?
_diffrn_standards_interval_count ?
_diffrn_standards_interval_time  ?
_diffrn_standards_decay_%        ?
_diffrn_reflns_number            55134
_diffrn_reflns_av_R_equivalents  0.1535
_diffrn_reflns_av_sigmaI/netI    0.2985
_diffrn_reflns_limit_h_min       -17
_diffrn_reflns_limit_h_max       16
_diffrn_reflns_limit_k_min       -56
_diffrn_reflns_limit_k_max       43
_diffrn_reflns_limit_l_min       -34
_diffrn_reflns_limit_l_max       24
_diffrn_reflns_theta_min         1.41
_diffrn_reflns_theta_max         25.03
_reflns_number_total             18251
_reflns_number_gt                5801
_reflns_threshold_expression     >2sigma(I)

_computing_data_collection       'Bruker SMART'
_computing_cell_refinement       'Bruker SMART'
_computing_data_reduction        'Bruker SHELXTL'
_computing_structure_solution    'SHELXS-97 (Sheldrick, 1990)'
_computing_structure_refinement  'SHELXL-97 (Sheldrick, 1997)'
_computing_molecular_graphics    'Bruker SHELXTL'
_computing_publication_material  'Bruker SHELXTL'

_refine_special_details          
; 
Refinement of F^2^ against ALL reflections.  The weighted R-factor wR and 
goodness of fit S are based on F^2^, conventional R-factors R are based 
on F, with F set to zero for negative F^2^. The threshold expression of 
F^2^ > 2sigma(F^2^) is used only for calculating R-factors(gt) etc. and is 
not relevant to the choice of reflections for refinement.  R-factors based 
on F^2^ are statistically about twice as large as those based on F, and R- 
factors based on ALL data will be even larger. 
;

_refine_ls_structure_factor_coef Fsqd
_refine_ls_matrix_type           full
_refine_ls_weighting_scheme      calc
_refine_ls_weighting_details     
'calc w=1/[\s^2^(Fo^2^)+(0.0531P)^2^+0.0000P] where P=(Fo^2^+2Fc^2^)/3'
_atom_sites_solution_primary     direct
_atom_sites_solution_secondary   difmap
_atom_sites_solution_hydrogens   geom
_refine_ls_hydrogen_treatment    mixed
_refine_ls_extinction_method     none
_refine_ls_extinction_coef       ?
_refine_ls_abs_structure_details 'Flack H D (1983), Acta Cryst. A39, 876-881'
_refine_ls_abs_structure_Flack   0.00(4)
_refine_ls_number_reflns         18251
_refine_ls_number_parameters     1052
_refine_ls_number_restraints     0
_refine_ls_R_factor_all          0.2155
_refine_ls_R_factor_gt           0.0546
_refine_ls_wR_factor_ref         0.1598
_refine_ls_wR_factor_gt          0.1182
_refine_ls_goodness_of_fit_ref   0.796
_refine_ls_restrained_S_all      0.796
_refine_ls_shift/su_max          0.136
_refine_ls_shift/su_mean         0.016

loop_
_atom_site_label
_atom_site_type_symbol
_atom_site_fract_x
_atom_site_fract_y
_atom_site_fract_z
_atom_site_U_iso_or_equiv
_atom_site_adp_type
_atom_site_occupancy
_atom_site_symmetry_multiplicity
_atom_site_calc_flag
_atom_site_refinement_flags
_atom_site_disorder_assembly
_atom_site_disorder_group
Sn1 Sn 0.75027(8) 0.26361(3) 0.69722(4) 0.0614(4) Uani 1 1 d . . .
Sn2 Sn 0.62355(7) 0.16565(3) 0.62081(5) 0.0628(4) Uani 1 1 d . . .
Sn3 Sn 0.81735(7) 0.07741(3) 0.55579(5) 0.0636(4) Uani 1 1 d . . .
Sn4 Sn 0.35537(8) 0.14196(3) 0.39295(5) 0.0655(4) Uani 1 1 d . . .
Sn5 Sn 0.17374(8) 0.08268(3) 0.52693(5) 0.0670(4) Uani 1 1 d . . .
O1 O 0.6806(7) 0.2292(2) 0.7300(4) 0.063(3) Uani 1 1 d . . .
O2 O 0.6644(7) 0.2032(2) 0.6665(4) 0.062(3) Uani 1 1 d . . .
O3 O 0.5814(6) 0.1308(2) 0.5770(4) 0.073(4) Uani 1 1 d . . .
O4 O 0.7130(7) 0.1125(2) 0.5667(4) 0.072(4) Uani 1 1 d . . .
O5 O 0.3059(8) 0.1188(2) 0.4595(5) 0.074(4) Uani 1 1 d . . .
O6 O 0.3087(7) 0.0981(2) 0.5281(5) 0.077(4) Uani 1 1 d . . .
O7 O 0.8211(7) 0.3024(2) 0.6677(4) 0.059(3) Uani 1 1 d . . .
O8 O 0.4185(7) 0.1629(2) 0.3351(4) 0.071(4) Uani 1 1 d . . .
O9 O 0.0270(7) 0.0674(3) 0.5323(4) 0.077(4) Uani 1 1 d . . .
O10 O 0.9054(7) 0.0421(2) 0.5452(5) 0.079(4) Uani 1 1 d . . .
C1 C 0.6453(12) 0.2090(4) 0.7077(7) 0.061(5) Uani 1 1 d . . .
C2 C 0.5790(11) 0.1914(3) 0.7340(6) 0.061(5) Uani 1 1 d . . .
C3 C 0.5000 0.2129(4) 0.7500 0.060(8) Uani 1 2 d S . .
C4 C 0.6286(11) 0.1133(4) 0.5540(7) 0.068(6) Uani 1 1 d . . .
C5 C 0.5992(11) 0.0958(4) 0.5147(7) 0.098(8) Uani 1 1 d . . .
C6 C 0.4956(11) 0.0922(3) 0.5193(7) 0.071(6) Uani 1 1 d . . .
C7 C 0.4445(9) 0.1201(4) 0.5022(6) 0.070(6) Uani 1 1 d . . .
C8 C 0.3445(10) 0.1116(4) 0.4961(8) 0.064(6) Uani 1 1 d . . .
C9 C 0.8929(14) 0.3136(4) 0.6813(6) 0.060(6) Uani 1 1 d . . .
C10 C 0.9575(10) 0.2991(3) 0.7156(6) 0.055(5) Uani 1 1 d . . .
C11 C 1.0000 0.3190(4) 0.7500 0.045(7) Uani 1 2 d S . .
C12 C -0.0136(15) 0.0432(4) 0.5362(7) 0.079(6) Uani 1 1 d . . .
C13 C 0.0421(15) 0.0175(4) 0.5336(14) 0.20(2) Uani 1 1 d . . .
C14 C -0.006(2) -0.0069(9) 0.5326(11) 0.201(14) Uani 1 1 d . . .
C15 C 0.7529(13) 0.2831(4) 0.7626(7) 0.075(5) Uani 1 1 d . . .
C16 C 0.7788(12) 0.2689(4) 0.8034(8) 0.085(6) Uani 1 1 d . . .
C17 C 0.7884(14) 0.2839(6) 0.8467(8) 0.102(8) Uani 1 1 d . . .
C18 C 0.771(3) 0.3117(8) 0.8493(11) 0.166(16) Uani 1 1 d . . .
C19 C 0.746(2) 0.3250(5) 0.8081(12) 0.136(10) Uani 1 1 d . . .
C20 C 0.7289(13) 0.3133(4) 0.7674(8) 0.088(7) Uani 1 1 d . . .
C21 C 0.6430(9) 0.2732(3) 0.6481(7) 0.104(9) Uani 1 1 d G . .
C22 C 0.6556(13) 0.2728(4) 0.6003(8) 0.22(2) Uani 1 1 d G . .
C23 C 0.585(2) 0.2785(4) 0.5707(5) 0.23(2) Uani 1 1 d G . .
C24 C 0.5010(16) 0.2845(4) 0.5890(9) 0.27(3) Uani 1 1 d G . .
C25 C 0.4884(8) 0.2848(3) 0.6368(10) 0.23(2) Uani 1 1 d G . .
C26 C 0.5594(13) 0.2792(3) 0.6664(6) 0.150(11) Uani 1 1 d G . .
C27 C 0.8607(10) 0.2381(4) 0.6766(8) 0.074(6) Uani 1 1 d . . .
C28 C 0.9116(15) 0.2461(4) 0.6371(8) 0.105(8) Uani 1 1 d . . .
C29 C 0.9957(16) 0.2297(6) 0.6293(9) 0.118(10) Uani 1 1 d . . .
C30 C 1.013(2) 0.2081(5) 0.6588(15) 0.151(15) Uani 1 1 d . . .
C31 C 0.956(2) 0.1995(6) 0.6950(11) 0.138(11) Uani 1 1 d . . .
C32 C 0.8834(17) 0.2155(5) 0.7054(8) 0.109(9) Uani 1 1 d . . .
C33 C 0.4850(11) 0.1771(4) 0.6270(7) 0.074(6) Uani 1 1 d . . .
C34 C 0.4215(11) 0.1557(4) 0.6323(7) 0.082(6) Uani 1 1 d . . .
C35 C 0.3285(15) 0.1646(6) 0.6398(7) 0.119(9) Uani 1 1 d . . .
C36 C 0.3121(17) 0.1937(6) 0.6455(10) 0.125(11) Uani 1 1 d . . .
C37 C 0.3723(15) 0.2128(5) 0.6385(8) 0.100(8) Uani 1 1 d . . .
C38 C 0.4646(14) 0.2054(4) 0.6297(6) 0.087(7) Uani 1 1 d . . .
C39 C 0.6718(14) 0.1403(4) 0.6741(6) 0.070(5) Uani 1 1 d . . .
C40 C 0.6184(17) 0.1185(4) 0.6965(9) 0.114(9) Uani 1 1 d . . .
C41 C 0.652(2) 0.1043(4) 0.7399(10) 0.126(10) Uani 1 1 d . . .
C42 C 0.735(2) 0.1141(6) 0.7559(13) 0.150(14) Uani 1 1 d . . .
C43 C 0.779(2) 0.1313(6) 0.7353(12) 0.127(11) Uani 1 1 d . . .
C44 C 0.7546(16) 0.1471(5) 0.6976(9) 0.108(8) Uani 1 1 d . . .
C45 C 0.6977(14) 0.1830(4) 0.5677(7) 0.076(6) Uani 1 1 d . . .
C46 C 0.669(2) 0.1809(4) 0.5227(10) 0.137(10) Uani 1 1 d . . .
C47 C 0.724(2) 0.1957(6) 0.4857(11) 0.165(15) Uani 1 1 d . . .
C48 C 0.7941(17) 0.2099(7) 0.4955(11) 0.139(13) Uani 1 1 d . . .
C49 C 0.8188(19) 0.2103(6) 0.5400(11) 0.150(12) Uani 1 1 d . . .
C50 C 0.7802(14) 0.1972(6) 0.5759(8) 0.123(10) Uani 1 1 d . . .
C51 C 0.8884(11) 0.0957(4) 0.6095(6) 0.061(5) Uani 1 1 d . . .
C52 C 0.9015(14) 0.0809(5) 0.6489(9) 0.104(8) Uani 1 1 d . . .
C53 C 0.956(2) 0.0924(7) 0.6888(9) 0.138(11) Uani 1 1 d . . .
C54 C 0.990(2) 0.1176(9) 0.6776(17) 0.17(2) Uani 1 1 d . . .
C55 C 0.982(3) 0.1313(10) 0.6389(19) 0.22(3) Uani 1 1 d . . .
C56 C 0.9310(15) 0.1204(5) 0.6045(10) 0.105(10) Uani 1 1 d . . .
C57 C 0.8233(13) 0.0886(5) 0.4878(7) 0.081(6) Uani 1 1 d . . .
C58 C 0.8533(18) 0.0691(8) 0.4549(10) 0.157(15) Uani 1 1 d . . .
C59 C 0.854(2) 0.0751(9) 0.408(2) 0.19(2) Uani 1 1 d . . .
C60 C 0.853(2) 0.1012(11) 0.3951(14) 0.17(2) Uani 1 1 d . . .
C61 C 0.8310(19) 0.1252(8) 0.4255(14) 0.162(14) Uani 1 1 d . . .
C62 C 0.8117(12) 0.1171(7) 0.4730(9) 0.108(8) Uani 1 1 d . . .
C63 C 0.7213(10) 0.0496(4) 0.5753(9) 0.092(8) Uani 1 1 d . . .
C64 C 0.6684(13) 0.0550(4) 0.6146(9) 0.118(9) Uani 1 1 d . . .
C65 C 0.5972(16) 0.0356(6) 0.6274(12) 0.184(15) Uani 1 1 d . . .
C66 C 0.587(3) 0.0110(6) 0.5979(18) 0.27(3) Uani 1 1 d . . .
C67 C 0.634(3) 0.0042(8) 0.5638(18) 0.31(3) Uani 1 1 d . . .
C68 C 0.7035(17) 0.0245(5) 0.5530(11) 0.156(12) Uani 1 1 d . . .
C69 C 0.2289(11) 0.1355(4) 0.3618(7) 0.070(6) Uani 1 1 d . . .
C70 C 0.234(2) 0.1232(6) 0.3143(10) 0.165(12) Uani 1 1 d . . .
C71 C 0.142(3) 0.1187(8) 0.2943(10) 0.185(15) Uani 1 1 d . . .
C72 C 0.066(2) 0.1285(7) 0.3217(12) 0.137(12) Uani 1 1 d . . .
C73 C 0.068(2) 0.1397(8) 0.3611(13) 0.180(15) Uani 1 1 d . . .
C74 C 0.1552(13) 0.1430(5) 0.3851(10) 0.127(9) Uani 1 1 d . . .
C75 C 0.4515(11) 0.1108(4) 0.3832(7) 0.064(5) Uani 1 1 d . . .
C76 C 0.4264(14) 0.0814(5) 0.3922(9) 0.111(8) Uani 1 1 d . . .
C77 C 0.496(2) 0.0607(4) 0.3895(11) 0.141(11) Uani 1 1 d . . .
C78 C 0.583(2) 0.0688(7) 0.3781(11) 0.152(12) Uani 1 1 d . . .
C79 C 0.6007(18) 0.0964(7) 0.3694(12) 0.159(13) Uani 1 1 d . . .
C80 C 0.5373(16) 0.1174(5) 0.3753(9) 0.122(9) Uani 1 1 d . . .
C81 C 0.3847(14) 0.1767(4) 0.4358(7) 0.074(6) Uani 1 1 d . . .
C82 C 0.4680(16) 0.1891(5) 0.4299(10) 0.119(11) Uani 1 1 d . . .
C83 C 0.487(2) 0.2106(7) 0.4580(15) 0.162(17) Uani 1 1 d . . .
C84 C 0.434(3) 0.2208(5) 0.4930(11) 0.134(13) Uani 1 1 d . . .
C85 C 0.355(2) 0.2079(6) 0.5004(8) 0.142(11) Uani 1 1 d . . .
C86 C 0.3262(15) 0.1846(4) 0.4722(8) 0.094(7) Uani 1 1 d . . .
C87 C 0.2026(14) 0.0651(4) 0.5924(8) 0.082(7) Uani 1 1 d . . .
C88 C 0.1384(16) 0.0629(5) 0.6254(8) 0.102(8) Uani 1 1 d . . .
C89 C 0.1561(19) 0.0517(6) 0.6669(12) 0.131(11) Uani 1 1 d . . .
C90 C 0.236(2) 0.0422(6) 0.6819(10) 0.134(13) Uani 1 1 d . . .
C91 C 0.310(2) 0.0461(5) 0.6494(11) 0.140(11) Uani 1 1 d . . .
C92 C 0.2942(14) 0.0581(4) 0.6051(8) 0.097(7) Uani 1 1 d . . .
C93 C 0.1202(11) 0.1235(4) 0.5256(7) 0.072(6) Uani 1 1 d . . .
C94 C 0.0418(13) 0.1290(4) 0.4989(7) 0.087(7) Uani 1 1 d . . .
C95 C 0.0106(12) 0.1584(5) 0.5013(7) 0.077(6) Uani 1 1 d . . .
C96 C 0.0517(16) 0.1815(5) 0.5237(9) 0.110(8) Uani 1 1 d . . .
C97 C 0.1288(17) 0.1727(5) 0.5505(10) 0.123(10) Uani 1 1 d . . .
C98 C 0.1647(12) 0.1447(5) 0.5533(7) 0.089(6) Uani 1 1 d . . .
C99 C 0.1898(13) 0.0595(4) 0.4690(8) 0.087(7) Uani 1 1 d . . .
C100 C 0.1444(19) 0.0648(6) 0.4264(10) 0.151(11) Uani 1 1 d . . .
C101 C 0.167(3) 0.0436(9) 0.3834(12) 0.217(17) Uani 1 1 d . . .
C102 C 0.225(3) 0.0232(9) 0.390(2) 0.22(3) Uani 1 1 d . . .
C103 C 0.263(3) 0.0194(9) 0.4275(12) 0.141(15) Uani 1 1 d . . .
C104 C 0.2556(18) 0.0373(5) 0.4651(9) 0.114(8) Uani 1 1 d . . .

loop_
_atom_site_aniso_label
_atom_site_aniso_U_11
_atom_site_aniso_U_22
_atom_site_aniso_U_33
_atom_site_aniso_U_23
_atom_site_aniso_U_13
_atom_site_aniso_U_12
Sn1 0.0520(7) 0.0761(9) 0.0562(9) -0.0065(8) -0.0034(8) -0.0088(7)
Sn2 0.0460(7) 0.0787(9) 0.0637(10) -0.0121(8) -0.0008(7) 0.0024(7)
Sn3 0.0423(7) 0.0685(9) 0.0801(10) -0.0056(8) 0.0003(7) -0.0033(7)
Sn4 0.0552(8) 0.0720(9) 0.0693(10) 0.0083(8) 0.0036(7) 0.0072(7)
Sn5 0.0460(7) 0.0793(9) 0.0756(10) 0.0026(8) 0.0016(7) 0.0011(7)
O1 0.067(7) 0.069(8) 0.053(8) -0.021(7) 0.017(7) -0.016(7)
O2 0.049(7) 0.078(9) 0.060(9) 0.004(7) 0.009(7) -0.004(6)
O3 0.034(7) 0.094(10) 0.091(11) -0.021(8) 0.001(7) 0.018(6)
O4 0.062(8) 0.077(9) 0.077(10) -0.011(7) -0.008(7) -0.001(6)
O5 0.066(9) 0.069(8) 0.086(11) 0.021(8) 0.017(8) 0.006(7)
O6 0.051(8) 0.096(10) 0.085(11) 0.031(8) 0.010(8) -0.004(7)
O7 0.050(7) 0.083(9) 0.044(8) 0.003(6) -0.002(7) -0.013(7)
O8 0.089(9) 0.055(8) 0.068(9) 0.017(7) 0.021(7) 0.017(7)
O9 0.058(8) 0.087(10) 0.087(11) 0.006(8) 0.016(8) 0.009(7)
O10 0.027(6) 0.074(8) 0.136(13) -0.012(8) 0.018(7) 0.000(6)
C1 0.063(13) 0.050(13) 0.070(16) -0.005(12) 0.015(12) 0.010(10)
C2 0.070(12) 0.052(12) 0.060(13) 0.012(10) 0.033(11) 0.002(9)
C3 0.049(15) 0.066(17) 0.07(2) 0.000 0.027(14) 0.000
C4 0.023(10) 0.085(14) 0.096(17) 0.025(13) 0.031(11) 0.030(10)
C5 0.030(11) 0.16(2) 0.109(19) -0.086(16) -0.043(11) 0.000(11)
C6 0.066(12) 0.060(12) 0.086(17) -0.002(11) -0.034(11) 0.018(10)
C7 0.019(9) 0.095(14) 0.095(16) 0.038(11) -0.022(9) -0.011(9)
C8 0.019(11) 0.068(14) 0.11(2) 0.011(13) -0.009(11) 0.014(9)
C9 0.102(17) 0.037(13) 0.041(13) -0.007(10) 0.028(12) -0.016(11)
C10 0.050(10) 0.038(10) 0.078(15) 0.005(9) -0.045(10) -0.001(8)
C11 0.068(15) 0.025(13) 0.043(17) 0.000 -0.047(12) 0.000
C12 0.088(17) 0.083(17) 0.066(17) -0.004(14) 0.003(13) 0.012(14)
C13 0.099(19) 0.032(14) 0.47(7) -0.09(2) 0.06(3) 0.009(14)
C14 0.22(3) 0.23(4) 0.15(3) -0.08(3) 0.02(3) 0.02(3)
C15 0.087(13) 0.085(15) 0.052(13) 0.016(12) -0.012(13) -0.001(12)
C16 0.083(15) 0.105(17) 0.067(15) -0.003(15) -0.003(13) 0.011(12)
C17 0.108(19) 0.15(2) 0.049(16) -0.027(18) -0.008(13) -0.030(17)
C18 0.26(4) 0.16(3) 0.08(2) -0.05(3) 0.02(3) -0.07(3)
C19 0.17(3) 0.11(2) 0.13(3) -0.05(2) 0.05(3) -0.01(2)
C20 0.105(17) 0.078(16) 0.081(17) -0.039(14) 0.008(15) 0.004(12)
C21 0.022(11) 0.056(13) 0.23(3) 0.003(16) -0.003(14) -0.011(9)
C22 0.43(6) 0.19(3) 0.040(17) 0.04(2) 0.01(3) -0.06(4)
C23 0.26(5) 0.22(4) 0.21(4) 0.06(3) -0.17(4) 0.00(3)
C24 0.23(4) 0.16(3) 0.41(7) 0.15(4) -0.26(4) -0.05(3)
C25 0.10(2) 0.13(2) 0.45(7) 0.00(3) -0.21(3) 0.016(18)
C26 0.14(3) 0.085(19) 0.22(4) 0.005(19) 0.00(3) -0.018(18)
C27 0.032(11) 0.082(15) 0.109(18) -0.050(13) 0.017(11) -0.021(10)
C28 0.090(16) 0.106(18) 0.12(2) -0.049(15) 0.035(15) -0.046(14)
C29 0.083(17) 0.13(2) 0.14(3) -0.08(2) 0.055(17) -0.028(17)
C30 0.11(2) 0.07(2) 0.27(5) 0.00(2) -0.04(3) 0.035(19)
C31 0.13(3) 0.12(2) 0.16(3) -0.02(2) 0.06(2) 0.02(2)
C32 0.14(2) 0.103(19) 0.087(19) -0.031(15) -0.049(16) 0.068(16)
C33 0.058(13) 0.092(16) 0.071(16) -0.013(13) -0.004(11) 0.001(12)
C34 0.032(11) 0.120(18) 0.094(17) 0.003(13) 0.001(11) -0.011(11)
C35 0.066(16) 0.21(3) 0.078(17) -0.012(19) 0.006(13) -0.036(19)
C36 0.09(2) 0.13(3) 0.15(3) -0.06(2) 0.025(18) -0.011(19)
C37 0.066(15) 0.13(2) 0.10(2) -0.033(16) -0.019(15) 0.047(15)
C38 0.119(19) 0.098(17) 0.042(14) -0.021(12) 0.004(13) 0.049(15)
C39 0.088(15) 0.062(14) 0.060(14) -0.008(11) -0.010(12) 0.021(13)
C40 0.20(3) 0.047(14) 0.10(2) 0.009(14) -0.03(2) -0.011(16)
C41 0.22(3) 0.053(15) 0.11(2) 0.018(15) 0.06(2) 0.030(19)
C42 0.15(3) 0.12(3) 0.18(4) 0.03(2) -0.06(3) 0.01(2)
C43 0.15(3) 0.10(3) 0.13(3) -0.02(2) 0.00(2) -0.002(19)
C44 0.107(18) 0.096(18) 0.12(2) 0.000(16) -0.049(18) 0.046(15)
C45 0.076(15) 0.097(