####################################################################### 
# 
# This file contains crystal structure data downloaded from the 
# Cambridge Structural Database (CSD) hosted by the Cambridge 
# Crystallographic Data Centre (CCDC).
# 
# Full information about CCDC data access policies and citation 
# guidelines are available at http://www.ccdc.cam.ac.uk/access/V1 
# 
# Audit and citation data items may have been added by the CCDC. 
# Please retain this information to preserve the provenance of 
# this file and to allow appropriate attribution of the data. 
# 
#######################################################################

data_UiO-66(Ce)_BDC-DS
_audit_block_doi                 10.5517/cc13szjd
_database_code_depnum_ccdc_archive 'CCDC 1036904'
loop_
_citation_id
_citation_doi
_citation_year
1 10.1039/c5cc02606g 2015
_audit_update_record             
;
2014-11-30 deposited with the CCDC.	2024-07-08 downloaded from the CCDC.
;

#==============================================================================
# Chemical + Structural + Crystal Information
#==============================================================================
_chemical_formula_moiety         'C72 Ce12 O64'
_chemical_formula_sum            'C72 Ce12 O64'
_chemical_formula_weight         3570.16
_cell_formula_units_Z            2
_pd_char_colour                  yellowish_white
_exptl_crystal_density_diffrn    1.198
_exptl_crystal_density_meas      'Not measured'
_exptl_crystal_density_method    'Not measured'
_cell_measurement_temperature    298

#==============================================================================
# Instrument + Refinement Information
#==============================================================================
_diffrn_ambient_temperature      298
_diffrn_measurement_device_type  'Stoe STADIP'
_diffrn_radiation_probe          x-ray
_diffrn_radiation_wavelength     1.54056
_diffrn_radiation_type           CuK\a~1~
_pd_proc_ls_prof_R_factor        0.0429
_pd_proc_ls_prof_wR_factor       0.0602
_pd_proc_ls_prof_wR_expected     0.0265
_refine_ls_R_I_factor            0.0586
_refine_ls_goodness_of_fit_all   2.26844
_refine_ls_shift/su_max          0
_refine_ls_number_parameters     0.000000
_refine_ls_number_restraints     18
_refine_diff_density_max         ? #Highest Fourier peak
_refine_diff_density_min         ? #Deepest Fourier hole

#==============================================================================
# Phase Information
#==============================================================================
_cell_length_a                   21.4727(3)
_cell_length_b                   21.4727(3)
_cell_length_c                   21.4727(3)
_cell_angle_alpha                90
_cell_angle_beta                 90
_cell_angle_gamma                90
_cell_volume                     9900.6(4)
_symmetry_cell_setting           cubic
_symmetry_space_group_name_H-M   'F m -3 m'
_symmetry_space_group_name_Hall  '-F 4 2 3'
_space_group_IT_number           225
loop_
_symmetry_equiv_pos_as_xyz
'x, y, z '
'-x, -y, z '
'-x, -z, -y '
'-x, -z, y '
'-x, z, -y '
'-x, z, y '
'-x, y, -z '
'-x, y, z '
'-y, -x, -z '
'-y, -x, z '
'-y, -z, -x '
'-y, -z, x '
'-y, z, -x '
'-y, z, x '
'-y, x, -z '
'-y, x, z '
'-z, -x, -y '
'-z, -x, y '
'-z, -y, -x '
'-z, -y, x '
'-z, y, -x '
'-z, y, x '
'-z, x, -y '
'-z, x, y '
'z, -x, -y '
'z, -x, y '
'z, -y, -x '
'z, -y, x '
'z, y, -x '
'z, y, x '
'z, x, -y '
'z, x, y '
'y, -x, -z '
'y, -x, z '
'y, -z, -x '
'y, -z, x '
'y, z, -x '
'y, z, x '
'y, x, -z '
'y, x, z '
'x, -y, -z '
'x, -y, z '
'x, -z, -y '
'x, -z, y '
'x, z, -y '
'x, z, y '
'x, y, -z '
'-x, -y, -z '
'x+1/2, y+1/2, z '
'-x+1/2, -y+1/2, z '
'-x+1/2, -z+1/2, -y '
'-x+1/2, -z+1/2, y '
'-x+1/2, z+1/2, -y '
'-x+1/2, z+1/2, y '
'-x+1/2, y+1/2, -z '
'-x+1/2, y+1/2, z '
'-y+1/2, -x+1/2, -z '
'-y+1/2, -x+1/2, z '
'-y+1/2, -z+1/2, -x '
'-y+1/2, -z+1/2, x '
'-y+1/2, z+1/2, -x '
'-y+1/2, z+1/2, x '
'-y+1/2, x+1/2, -z '
'-y+1/2, x+1/2, z '
'-z+1/2, -x+1/2, -y '
'-z+1/2, -x+1/2, y '
'-z+1/2, -y+1/2, -x '
'-z+1/2, -y+1/2, x '
'-z+1/2, y+1/2, -x '
'-z+1/2, y+1/2, x '
'-z+1/2, x+1/2, -y '
'-z+1/2, x+1/2, y '
'z+1/2, -x+1/2, -y '
'z+1/2, -x+1/2, y '
'z+1/2, -y+1/2, -x '
'z+1/2, -y+1/2, x '
'z+1/2, y+1/2, -x '
'z+1/2, y+1/2, x '
'z+1/2, x+1/2, -y '
'z+1/2, x+1/2, y '
'y+1/2, -x+1/2, -z '
'y+1/2, -x+1/2, z '
'y+1/2, -z+1/2, -x '
'y+1/2, -z+1/2, x '
'y+1/2, z+1/2, -x '
'y+1/2, z+1/2, x '
'y+1/2, x+1/2, -z '
'y+1/2, x+1/2, z '
'x+1/2, -y+1/2, -z '
'x+1/2, -y+1/2, z '
'x+1/2, -z+1/2, -y '
'x+1/2, -z+1/2, y '
'x+1/2, z+1/2, -y '
'x+1/2, z+1/2, y '
'x+1/2, y+1/2, -z '
'-x+1/2, -y+1/2, -z '
'x+1/2, y, z+1/2 '
'-x+1/2, -y, z+1/2 '
'-x+1/2, -z, -y+1/2 '
'-x+1/2, -z, y+1/2 '
'-x+1/2, z, -y+1/2 '
'-x+1/2, z, y+1/2 '
'-x+1/2, y, -z+1/2 '
'-x+1/2, y, z+1/2 '
'-y+1/2, -x, -z+1/2 '
'-y+1/2, -x, z+1/2 '
'-y+1/2, -z, -x+1/2 '
'-y+1/2, -z, x+1/2 '
'-y+1/2, z, -x+1/2 '
'-y+1/2, z, x+1/2 '
'-y+1/2, x, -z+1/2 '
'-y+1/2, x, z+1/2 '
'-z+1/2, -x, -y+1/2 '
'-z+1/2, -x, y+1/2 '
'-z+1/2, -y, -x+1/2 '
'-z+1/2, -y, x+1/2 '
'-z+1/2, y, -x+1/2 '
'-z+1/2, y, x+1/2 '
'-z+1/2, x, -y+1/2 '
'-z+1/2, x, y+1/2 '
'z+1/2, -x, -y+1/2 '
'z+1/2, -x, y+1/2 '
'z+1/2, -y, -x+1/2 '
'z+1/2, -y, x+1/2 '
'z+1/2, y, -x+1/2 '
'z+1/2, y, x+1/2 '
'z+1/2, x, -y+1/2 '
'z+1/2, x, y+1/2 '
'y+1/2, -x, -z+1/2 '
'y+1/2, -x, z+1/2 '
'y+1/2, -z, -x+1/2 '
'y+1/2, -z, x+1/2 '
'y+1/2, z, -x+1/2 '
'y+1/2, z, x+1/2 '
'y+1/2, x, -z+1/2 '
'y+1/2, x, z+1/2 '
'x+1/2, -y, -z+1/2 '
'x+1/2, -y, z+1/2 '
'x+1/2, -z, -y+1/2 '
'x+1/2, -z, y+1/2 '
'x+1/2, z, -y+1/2 '
'x+1/2, z, y+1/2 '
'x+1/2, y, -z+1/2 '
'-x+1/2, -y, -z+1/2 '
'x, y+1/2, z+1/2 '
'-x, -y+1/2, z+1/2 '
'-x, -z+1/2, -y+1/2 '
'-x, -z+1/2, y+1/2 '
'-x, z+1/2, -y+1/2 '
'-x, z+1/2, y+1/2 '
'-x, y+1/2, -z+1/2 '
'-x, y+1/2, z+1/2 '
'-y, -x+1/2, -z+1/2 '
'-y, -x+1/2, z+1/2 '
'-y, -z+1/2, -x+1/2 '
'-y, -z+1/2, x+1/2 '
'-y, z+1/2, -x+1/2 '
'-y, z+1/2, x+1/2 '
'-y, x+1/2, -z+1/2 '
'-y, x+1/2, z+1/2 '
'-z, -x+1/2, -y+1/2 '
'-z, -x+1/2, y+1/2 '
'-z, -y+1/2, -x+1/2 '
'-z, -y+1/2, x+1/2 '
'-z, y+1/2, -x+1/2 '
'-z, y+1/2, x+1/2 '
'-z, x+1/2, -y+1/2 '
'-z, x+1/2, y+1/2 '
'z, -x+1/2, -y+1/2 '
'z, -x+1/2, y+1/2 '
'z, -y+1/2, -x+1/2 '
'z, -y+1/2, x+1/2 '
'z, y+1/2, -x+1/2 '
'z, y+1/2, x+1/2 '
'z, x+1/2, -y+1/2 '
'z, x+1/2, y+1/2 '
'y, -x+1/2, -z+1/2 '
'y, -x+1/2, z+1/2 '
'y, -z+1/2, -x+1/2 '
'y, -z+1/2, x+1/2 '
'y, z+1/2, -x+1/2 '
'y, z+1/2, x+1/2 '
'y, x+1/2, -z+1/2 '
'y, x+1/2, z+1/2 '
'x, -y+1/2, -z+1/2 '
'x, -y+1/2, z+1/2 '
'x, -z+1/2, -y+1/2 '
'x, -z+1/2, y+1/2 '
'x, z+1/2, -y+1/2 '
'x, z+1/2, y+1/2 '
'x, y+1/2, -z+1/2 '
'-x, -y+1/2, -z+1/2 '

# Atomic coordinates & thermal parameters
loop_
_atom_site_label
_atom_site_type_symbol
_atom_site_symmetry_multiplicity
_atom_site_fract_x
_atom_site_fract_y
_atom_site_fract_z
_atom_site_occupancy
_atom_site_B_iso_or_equiv
Ce1 Ce 24 0.12416(18) 0 0 1 0.36(11)
O1 O 96 0.1747(7) 0 0.0997(6) 1 1.4(4)
C1 C 48 0.157(2) 0 0.157(2) 0.5 0.5(7)
C2 C 48 0.204(2) 0 0.204(2) 0.5 0.5(7)
C3 C 96 0.2666(9) 0 0.1875(9) 1 0.5(7)
O8 O 32 0.0656(7) 0.0656(7) 0.0656(7) 1 1.4(4)

# Molecular Geometry
loop_
_geom_bond_atom_site_label_1
_geom_bond_atom_site_label_2
_geom_bond_distance
_geom_bond_site_symmetry_1
_geom_bond_site_symmetry_2
Ce1 O8 2.356(11) 1_555 26_555
Ce1 O8 2.356(11) 1_555 1_555
Ce1 O8 2.356(11) 1_555 29_555
Ce1 O8 2.356(11) 1_555 25_555
Ce1 O1 2.401(14) 1_555 41_555
Ce1 O1 2.401(14) 1_555 43_555
Ce1 O1 2.401(14) 1_555 1_555
Ce1 O1 2.401(14) 1_555 45_555
O1 C1 1.28(4) 1_555 1_555
C1 C2 1.44(10) 1_555 1_555
C2 C3 1.39(4) 1_555 1_555
C2 C3 1.39(4) 1_555 28_555
C3 C3 1.39(4) 1_555 115_555
loop_
_geom_angle_atom_site_label_1
_geom_angle_atom_site_label_2
_geom_angle_atom_site_label_3
_geom_angle
_geom_angle_site_symmetry_1
_geom_angle_site_symmetry_2
_geom_angle_site_symmetry_3
O8 Ce1 O8 73.5(5) 1_555 1_555 26_555
O8 Ce1 O8 73.5(5) 29_555 1_555 1_555
O8 Ce1 O8 115.5(11) 29_555 1_555 26_555
O8 Ce1 O8 73.5(5) 25_555 1_555 29_555
O8 Ce1 O8 115.5(11) 25_555 1_555 1_555
O8 Ce1 O8 73.5(5) 25_555 1_555 26_555
O1 Ce1 O8 73.0(5) 41_555 1_555 25_555
O1 Ce1 O8 73.0(5) 41_555 1_555 29_555
O1 Ce1 O8 140.77(13) 41_555 1_555 1_555
O1 Ce1 O8 140.77(13) 41_555 1_555 26_555
O1 Ce1 O1 78.2(3) 43_555 1_555 41_555
O1 Ce1 O8 73.0(5) 43_555 1_555 25_555
O1 Ce1 O8 140.77(13) 43_555 1_555 29_555
O1 Ce1 O8 140.77(13) 43_555 1_555 1_555
O1 Ce1 O8 73.0(5) 43_555 1_555 26_555
O1 Ce1 O1 78.2(3) 1_555 1_555 43_555
O1 Ce1 O1 126.2(7) 1_555 1_555 41_555
O1 Ce1 O8 140.77(13) 1_555 1_555 25_555
O1 Ce1 O8 140.77(13) 1_555 1_555 29_555
O1 Ce1 O8 73.0(5) 1_555 1_555 1_555
O1 Ce1 O8 73.0(5) 1_555 1_555 26_555
O1 Ce1 O1 78.2(3) 45_555 1_555 1_555
O1 Ce1 O1 126.2(7) 45_555 1_555 43_555
O1 Ce1 O1 78.2(3) 45_555 1_555 41_555
O1 Ce1 O8 140.77(13) 45_555 1_555 25_555
O1 Ce1 O8 73.0(5) 45_555 1_555 29_555
O1 Ce1 O8 73.0(5) 45_555 1_555 1_555
O1 Ce1 O8 140.77(13) 45_555 1_555 26_555
Ce1 O1 C1 135(3) 1_555 1_555 1_555
O1 C1 O1 126(6) 1_555 1_555 28_555
C2 C1 O1 117(3) 1_555 1_555 1_555
C3 C2 C3 119(5) 28_555 1_555 1_555
C1 C2 C3 120(3) 1_555 1_555 28_555

#==============================================================================
# PD Data Block - Obs + Calc
#==============================================================================
_pd_proc_2theta_range_min        4.98663
_pd_proc_2theta_range_max        99.99735
_pd_proc_2theta_range_inc        0.02626
_pd_meas_number_of_points        3619

loop_
_pd_proc_point_id
_pd_meas_2theta_scan
_pd_proc_intensity_total
_pd_calc_intensity_total
_pd_proc_ls_weight
1 4.98663 2730.98735 3023.00000 0.00033
2 5.01289 2869.08671 3055.00000 0.00033
3 5.03915 2971.29282 2937.00000 0.00034
4 5.06541 3042.70176 2997.00000 0.00033
5 5.09167 3087.92156 2929.00000 0.00034
6 5.11793 3111.10612 3033.00000 0.00033
7 5.14419 3115.98757 3007.00000 0.00033
8 5.17045 3105.90682 2879.00000 0.00035
9 5.19671 3083.84261 2927.00000 0.00034
10 5.22298 3052.43899 2894.00000 0.00035
11 5.24924 3014.03128 2941.00000 0.00034
12 5.27550 2970.67060 2905.00000 0.00034
13 5.30176 2924.14699 2875.00000 0.00035
14 5.32802 2876.01121 2817.00000 0.00035
15 5.35428 2827.59524 2879.00000 0.00035
16 5.38054 2780.03154 2738.00000 0.00037
17 5.40680 2734.27115 2715.00000 0.00037
18 5.43306 2691.10060 2708.00000 0.00037
19 5.45932 2651.15779 2798.00000 0.00036
20 5.48558 2614.94680 2735.00000 0.00037
21 5.51184 2582.85171 2745.00000 0.00036
22 5.53810 2555.14949 2707.00000 0.00037
23 5.56436 2532.02199 2711.00000 0.00037
24 5.59062 2513.56706 2679.00000 0.00037
25 5.61688 2499.80886 2591.00000 0.00039
26 5.64314 2490.70747 2684.00000 0.00037
27 5.66940 2486.16765 2649.00000 0.00038
28 5.69567 2486.04702 2572.00000 0.00039
29 5.72193 2490.16358 2664.00000 0.00038
30 5.74819 2498.30257 2647.00000 0.00038
31 5.77445 2510.22281 2606.00000 0.00038
32 5.80071 2525.66254 2541.00000 0.00039
33 5.82697 2544.34467 2529.00000 0.00040
34 5.85323 2565.98172 2592.00000 0.00039
35 5.87949 2590.28017 2586.00000 0.00039
36 5.90575 2616.94465 2586.00000 0.00039
37 5.93201 2645.68159 2562.00000 0.00039
38 5.95827 2676.20270 2599.00000 0.00038
39 5.98453 2708.22823 2549.00000 0.00039
40 6.01079 2741.48993 2607.00000 0.00038
41 6.03705 2775.73399 2662.00000 0.00038
42 6.06331 2810.72391 2680.00000 0.00037
43 6.08957 2846.24336 2625.00000 0.00038
44 6.11583 2882.09929 2710.00000 0.00037
45 6.14210 2918.12534 2722.00000 0.00037
46 6.16836 2954.18576 2788.00000 0.00036
47 6.19462 2990.18031 2767.00000 0.00036
48 6.22088 3026.05042 2752.00000 0.00036
49 6.24714 3061.78760 2767.00000 0.00036
50 6.27340 3097.44496 2885.00000 0.00035
51 6.29966 3133.15418 2838.00000 0.00035
52 6.32592 3169.15103 3028.00000 0.00033
53 6.35218 3205.81589 3145.00000 0.00032
54 6.37844 3243.74148 3322.00000 0.00030
55 6.40470 3283.85358 3372.00000 0.00030
56 6.43096 3327.65453 3534.00000 0.00028
57 6.45722 3377.89627 3576.00000 0.00028
58 6.48348 3441.09804 3665.00000 0.00027
59 6.50974 3534.76942 3862.00000 0.00026
60 6.53600 3694.69644 3930.00000 0.00025
61 6.56226 3952.54794 4156.00000 0.00024
62 6.58852 4295.27336 4493.00000 0.00022
63 6.61479 4695.00360 4881.00000 0.00020
64 6.64105 5138.77988 5179.00000 0.00019
65 6.66731 5625.18166 5638.00000 0.00018
66 6.69357 6157.58023 6152.00000 0.00016
67 6.71983 6741.70936 6501.00000 0.00015
68 6.74609 7385.32593 7200.00000 0.00014
69 6.77235 8098.47457 7708.00000 0.00013
70 6.79861 8894.06878 8673.00000 0.00012
71 6.82487 9788.81948 9516.00000 0.00011
72 6.85113 10804.65668 10403.00000 0.00010
73 6.87739 11970.92411 11868.00000 0.00008
74 6.90365 13327.86266 13595.00000 0.00007
75 6.92991 14932.36825 15371.00000 0.00007
76 6.95617 16868.04632 17557.00000 0.00006
77 6.98243 19264.25452 20459.00000 0.00005
78 7.00869 22337.87147 23753.00000 0.00004
79 7.03495 26505.07040 29087.00000 0.00003
80 7.06121 32613.26588 36187.00000 0.00003
81 7.08748 41531.20664 46241.00000 0.00002
82 7.11374 50310.38245 55892.00000 0.00002
83 7.14000 46587.71735 50263.00000 0.00002
84 7.16626 27965.65198 30629.00000 0.00003
85 7.19252 14097.35650 14235.00000 0.00007
86 7.21878 8220.65995 8178.00000 0.00012
87 7.24504 5996.69141 5892.00000 0.00017
88 7.27130 4925.93171 4754.00000 0.00021
89 7.29756 4275.46829 4075.00000 0.00025
90 7.32382 3836.87158 3698.00000 0.00027
91 7.35008 3522.62998 3400.00000 0.00029
92 7.37634 3286.76726 3183.00000 0.00031
93 7.40260 3102.97501 2956.00000 0.00034
94 7.42886 2955.33726 3038.00000 0.00033
95 7.45512 2833.79501 2852.00000 0.00035
96 7.48138 2731.77186 2715.00000 0.00037
97 7.50764 2644.86459 2641.00000 0.00038
98 7.53391 2570.09319 2653.00000 0.00038
99 7.56017 2505.46499 2553.00000 0.00039
100 7.58643 2449.73316 2653.00000 0.00038
101 7.61269 2402.30563 2513.00000 0.00040
102 7.63895 2363.37623 2549.00000 0.00039
103 7.66521 2334.77184 2632.00000 0.00038
104 7.69147 2322.64886 2610.00000 0.00038
105 7.71773 2340.83897 2664.00000 0.00038
106 7.74399 2404.18036 2625.00000 0.00038
107 7.77025 2510.50993 2785.00000 0.00036
108 7.79651 2648.45196 2854.00000 0.00035
109 7.82277 2812.01023 2936.00000 0.00034
110 7.84903 3000.75935 2910.00000 0.00034
111 7.87529 3216.99860 3095.00000 0.00032
112 7.90155 3464.56518 3216.00000 0.00031
113 7.92781 3748.77754 3432.00000 0.00029
114 7.95407 4076.87630 3539.00000 0.00028
115 7.98033 4458.66536 3933.00000 0.00025
116 8.00660 4907.69155 4166.00000 0.00024
117 8.03286 5443.18650 4614.00000 0.00022
118 8.05912 6093.47437 4990.00000 0.00020
119 8.08538 6902.45849 5619.00000 0.00018
120 8.11164 7943.99603 6546.00000 0.00015
121 8.13790 9360.27449 7682.00000 0.00013
122 8.16416 11436.81901 9313.00000 0.00011
123 8.19042 14454.26558 11229.00000 0.00009
124 8.21668 17453.23864 13541.00000 0.00007
125 8.24294 16484.31156 12673.00000 0.00008
126 8.26920 10459.56660 8552.00000 0.00012
127 8.29546 5675.08340 4932.00000 0.00020
128 8.32172 3563.22646 3377.00000 0.00030
129 8.34798 2764.19641 2751.00000 0.00036
130 8.37424 2392.83598 2447.00000 0.00041
131 8.40050 2172.78652 2228.00000 0.00045
132 8.42676 2027.14651 2133.00000 0.00047
133 8.45302 1925.05347 2024.00000 0.00049
134 8.47929 1850.45431 2069.00000 0.00048
135 8.50555 1794.15477 1950.00000 0.00051
136 8.53181 1750.56937 1935.00000 0.00052
137 8.55807 1716.13937 1900.00000 0.00053
138 8.58433 1688.50440 1935.00000 0.00052
139 8.61059 1666.04417 1874.00000 0.00053
140 8.63685 1647.61266 1825.00000 0.00055
141 8.66311 1632.37761 1884.00000 0.00053
142 8.68937 1619.72028 1800.00000 0.00056
143 8.71563 1609.17079 1843.00000 0.00054
144 8.74189 1600.36540 1788.00000 0.00056
145 8.76815 1593.01749 1815.00000 0.00055
146 8.79441 1586.89756 1744.00000 0.00057
147 8.82067 1581.81910 1758.00000 0.00057
148 8.84693 1577.62844 1696.00000 0.00059
149 8.87319 1574.19739 1778.00000 0.00056
150 8.89945 1571.41779 1728.00000 0.00058
151 8.92572 1569.19739 1728.00000 0.00058
152 8.95198 1567.45683 1611.00000 0.00062
153 8.97824 1566.12722 1656.00000 0.00060
154 9.00450 1565.14837 1707.00000 0.00059
155 9.03076 1564.46729 1690.00000 0.00059
156 9.05702 1564.03711 1618.00000 0.00062
157 9.08328 1563.81617 1686.00000 0.00059
158 9.10954 1563.76733 1675.00000 0.00060
159 9.13580 1563.85733 1649.00000 0.00061
160 9.16206 1564.05635 1716.00000 0.00058
161 9.18832 1564.33764 1610.00000 0.00062
162 9.21458 1564.67712 1631.00000 0.00061
163 9.24084 1565.05320 1683.00000 0.00059
164 9.26710 1565.44649 1561.00000 0.00064
165 9.29336 1565.83960 1616.00000 0.00062
166 9.31962 1566.21700 1642.00000 0.00061
167 9.34588 1566.56487 1591.00000 0.00063
168 9.37214 1566.87094 1649.00000 0.00061
169 9.39841 1567.12441 1637.00000 0.00061
170 9.42467 1567.31582 1587.00000 0.00063
171 9.45093 1567.43698 1582.00000 0.00063
172 9.47719 1567.48086 1541.00000 0.00065
173 9.50345 1567.44168 1519.00000 0.00066
174 9.52971 1567.31483 1561.00000 0.00064
175 9.55597 1567.09647 1527.00000 0.00065
176 9.58223 1566.78363 1582.00000 0.00063
177 9.60849 1566.37425 1548.00000 0.00065
178 9.63475 1565.86705 1537.00000 0.00065
179 9.66101 1565.26158 1528.00000 0.00065
180 9.68727 1564.55818 1557.00000 0.00064
181 9.71353 1563.75807 1542.00000 0.00065
182 9.73979 1562.86361 1537.00000 0.00065
183 9.76605 1561.87964 1454.00000 0.00069
184 9.792