
#######################################################################
#
#                 Cambridge Crystallographic Data Centre
#                                CCDC
#
#######################################################################
#
# If this CIF has been generated from an entry in the Cambridge
# Structural Database, then it will include bibliographic, chemical,
# crystal, experimental, refinement or atomic coordinate data resulting
# from the CCDC's data processing and validation procedures.
#
#######################################################################

data_CSD_CIF_CACDAO
_audit_creation_date 2015-11-26
_audit_creation_method CSD-ConQuest-V1
_database_code_CSD CACDAO
_database_code_depnum_ccdc_archive 'CCDC 1439114; CCDC 430565'
_chemical_formula_sum 'H26 B2 Co1 N6'
_chemical_formula_moiety
;
H18 Co1 N6 2+,2(H4 B1 1-)
;
_journal_coden_Cambridge 9
_journal_volume 54
_journal_year 2015
_journal_page_first 10477
_journal_name_full 'Inorg.Chem. '
loop_
_publ_author_name
"E.Roedern"
"T.R.Jensen"
_chemical_name_systematic
;
hexaammine-cobalt(ii) bis(borohydride)
;
_chemical_name_common
;
Teaching Subset: Fundamental Chemistry, Symmetry
;
_cell_volume   1215.588
_exptl_special_details
;
powder data

;
_diffrn_ambient_temperature 240
#These two values have been output from a single CSD field.
_refine_ls_R_factor_gt 0.0487
_refine_ls_wR_factor_gt 0.0487
_symmetry_cell_setting cubic
_symmetry_space_group_name_H-M 'F m -3 m'
_symmetry_Int_Tables_number 225
loop_
_symmetry_equiv_pos_site_id
_symmetry_equiv_pos_as_xyz
1 x,y,z
2 x,-y,-z
3 -x,y,-z
4 -x,-y,z
5 y,z,x
6 -y,-z,x
7 y,-z,-x
8 -y,z,-x
9 z,x,y
10 -z,x,-y
11 -z,-x,y
12 z,-x,-y
13 -y,-x,-z
14 y,-x,z
15 -y,x,z
16 y,x,-z
17 -z,-y,-x
18 z,y,-x
19 z,-y,x
20 -z,y,x
21 -x,-z,-y
22 -x,z,y
23 x,z,-y
24 x,-z,y
25 1/2+x,1/2+y,z
26 1/2+x,1/2-y,-z
27 1/2-x,1/2+y,-z
28 1/2-x,1/2-y,z
29 1/2+y,1/2+z,x
30 1/2-y,1/2-z,x
31 1/2+y,1/2-z,-x
32 1/2-y,1/2+z,-x
33 1/2+z,1/2+x,y
34 1/2-z,1/2+x,-y
35 1/2-z,1/2-x,y
36 1/2+z,1/2-x,-y
37 1/2-y,1/2-x,-z
38 1/2+y,1/2-x,z
39 1/2-y,1/2+x,z
40 1/2+y,1/2+x,-z
41 1/2-z,1/2-y,-x
42 1/2+z,1/2+y,-x
43 1/2+z,1/2-y,x
44 1/2-z,1/2+y,x
45 1/2-x,1/2-z,-y
46 1/2-x,1/2+z,y
47 1/2+x,1/2+z,-y
48 1/2+x,1/2-z,y
49 1/2+x,y,1/2+z
50 1/2+x,-y,1/2-z
51 1/2-x,y,1/2-z
52 1/2-x,-y,1/2+z
53 1/2+y,z,1/2+x
54 1/2-y,-z,1/2+x
55 1/2+y,-z,1/2-x
56 1/2-y,z,1/2-x
57 1/2+z,x,1/2+y
58 1/2-z,x,1/2-y
59 1/2-z,-x,1/2+y
60 1/2+z,-x,1/2-y
61 1/2-y,-x,1/2-z
62 1/2+y,-x,1/2+z
63 1/2-y,x,1/2+z
64 1/2+y,x,1/2-z
65 1/2-z,-y,1/2-x
66 1/2+z,y,1/2-x
67 1/2+z,-y,1/2+x
68 1/2-z,y,1/2+x
69 1/2-x,-z,1/2-y
70 1/2-x,z,1/2+y
71 1/2+x,z,1/2-y
72 1/2+x,-z,1/2+y
73 x,1/2+y,1/2+z
74 x,1/2-y,1/2-z
75 -x,1/2+y,1/2-z
76 -x,1/2-y,1/2+z
77 y,1/2+z,1/2+x
78 -y,1/2-z,1/2+x
79 y,1/2-z,1/2-x
80 -y,1/2+z,1/2-x
81 z,1/2+x,1/2+y
82 -z,1/2+x,1/2-y
83 -z,1/2-x,1/2+y
84 z,1/2-x,1/2-y
85 -y,1/2-x,1/2-z
86 y,1/2-x,1/2+z
87 -y,1/2+x,1/2+z
88 y,1/2+x,1/2-z
89 -z,1/2-y,1/2-x
90 z,1/2+y,1/2-x
91 z,1/2-y,1/2+x
92 -z,1/2+y,1/2+x
93 -x,1/2-z,1/2-y
94 -x,1/2+z,1/2+y
95 x,1/2+z,1/2-y
96 x,1/2-z,1/2+y
97 -x,-y,-z
98 -x,y,z
99 x,-y,z
100 x,y,-z
101 -y,-z,-x
102 y,z,-x
103 -y,z,x
104 y,-z,x
105 -z,-x,-y
106 z,-x,y
107 z,x,-y
108 -z,x,y
109 y,x,z
110 -y,x,-z
111 y,-x,-z
112 -y,-x,z
113 z,y,x
114 -z,-y,x
115 -z,y,-x
116 z,-y,-x
117 x,z,y
118 x,-z,-y
119 -x,-z,y
120 -x,z,-y
121 -1/2-x,-1/2-y,-z
122 -1/2-x,-1/2+y,z
123 -1/2+x,-1/2-y,z
124 -1/2+x,-1/2+y,-z
125 -1/2-y,-1/2-z,-x
126 -1/2+y,-1/2+z,-x
127 -1/2-y,-1/2+z,x
128 -1/2+y,-1/2-z,x
129 -1/2-z,-1/2-x,-y
130 -1/2+z,-1/2-x,y
131 -1/2+z,-1/2+x,-y
132 -1/2-z,-1/2+x,y
133 -1/2+y,-1/2+x,z
134 -1/2-y,-1/2+x,-z
135 -1/2+y,-1/2-x,-z
136 -1/2-y,-1/2-x,z
137 -1/2+z,-1/2+y,x
138 -1/2-z,-1/2-y,x
139 -1/2-z,-1/2+y,-x
140 -1/2+z,-1/2-y,-x
141 -1/2+x,-1/2+z,y
142 -1/2+x,-1/2-z,-y
143 -1/2-x,-1/2-z,y
144 -1/2-x,-1/2+z,-y
145 -1/2-x,-y,-1/2-z
146 -1/2-x,y,-1/2+z
147 -1/2+x,-y,-1/2+z
148 -1/2+x,y,-1/2-z
149 -1/2-y,-z,-1/2-x
150 -1/2+y,z,-1/2-x
151 -1/2-y,z,-1/2+x
152 -1/2+y,-z,-1/2+x
153 -1/2-z,-x,-1/2-y
154 -1/2+z,-x,-1/2+y
155 -1/2+z,x,-1/2-y
156 -1/2-z,x,-1/2+y
157 -1/2+y,x,-1/2+z
158 -1/2-y,x,-1/2-z
159 -1/2+y,-x,-1/2-z
160 -1/2-y,-x,-1/2+z
161 -1/2+z,y,-1/2+x
162 -1/2-z,-y,-1/2+x
163 -1/2-z,y,-1/2-x
164 -1/2+z,-y,-1/2-x
165 -1/2+x,z,-1/2+y
166 -1/2+x,-z,-1/2-y
167 -1/2-x,-z,-1/2+y
168 -1/2-x,z,-1/2-y
169 -x,-1/2-y,-1/2-z
170 -x,-1/2+y,-1/2+z
171 x,-1/2-y,-1/2+z
172 x,-1/2+y,-1/2-z
173 -y,-1/2-z,-1/2-x
174 y,-1/2+z,-1/2-x
175 -y,-1/2+z,-1/2+x
176 y,-1/2-z,-1/2+x
177 -z,-1/2-x,-1/2-y
178 z,-1/2-x,-1/2+y
179 z,-1/2+x,-1/2-y
180 -z,-1/2+x,-1/2+y
181 y,-1/2+x,-1/2+z
182 -y,-1/2+x,-1/2-z
183 y,-1/2-x,-1/2-z
184 -y,-1/2-x,-1/2+z
185 z,-1/2+y,-1/2+x
186 -z,-1/2-y,-1/2+x
187 -z,-1/2+y,-1/2-x
188 z,-1/2-y,-1/2-x
189 x,-1/2+z,-1/2+y
190 x,-1/2-z,-1/2-y
191 -x,-1/2-z,-1/2+y
192 -x,-1/2+z,-1/2-y
_cell_length_a 10.6724(3)
_cell_length_b 10.6724(3)
_cell_length_c 10.6724(3)
_cell_angle_alpha 90
_cell_angle_beta 90
_cell_angle_gamma 90
_cell_formula_units_Z 4
loop_
_atom_type_symbol
_atom_type_radius_bond
H 0.23
B 0.83
Co 1.26
N 0.68
loop_
_atom_site_label
_atom_site_type_symbol
_atom_site_fract_x
_atom_site_fract_y
_atom_site_fract_z
Co1 Co 0.00000 0.00000 0.00000
N1 N 0.00000 0.00000 0.20455
H1 H -0.08158 0.02900 0.23855
B1 B 0.25000 0.25000 0.25000
H2 H 0.18476 0.31530 0.31539
N1A N 0.00000 0.00000 -0.20455
N1D N 0.00000 0.20455 0.00000
N1E N 0.00000 -0.20455 0.00000
N1H N 0.20455 0.00000 0.00000
N1I N -0.20455 0.00000 0.00000
H2D H 0.31530 0.31539 0.18476
H2H H 0.31539 0.18476 0.31530
H2CA H 0.18470 0.18461 0.18476
#END
