####################################################################### 
# 
# This file contains crystal structure data downloaded from the 
# Cambridge Structural Database (CSD) hosted by the Cambridge 
# Crystallographic Data Centre (CCDC).
# 
# Full information about CCDC data access policies and citation 
# guidelines are available at http://www.ccdc.cam.ac.uk/access/V1 
# 
# Audit and citation data items may have been added by the CCDC. 
# Please retain this information to preserve the provenance of 
# this file and to allow appropriate attribution of the data. 
# 
#######################################################################

data_FMOF-1T150K
_audit_block_doi                 10.5517/ccqqh52
_database_code_depnum_ccdc_archive 'CCDC 677014'
loop_
_citation_id
_citation_doi
_citation_year
1 10.1002/anie.200804739 2009
_audit_update_record             
;
2008-02-05 deposited with the CCDC.	2024-07-09 downloaded from the CCDC.
;

_audit_creation_method           SHELXL-97
_chemical_name_systematic        
;
?
;
_chemical_name_common            {Ag2[Ag4Tz6]}n
_chemical_melting_point          ?
_chemical_formula_moiety         'C24 Ag6 F36 N18, 0.6(N2)'
_chemical_formula_sum            'C24 Ag6 F36 N19.20'
_chemical_formula_weight         1888.45

loop_
_atom_type_symbol
_atom_type_description
_atom_type_scat_dispersion_real
_atom_type_scat_dispersion_imag
_atom_type_scat_source
C C 0.0033 0.0016 'International Tables Vol C Tables 4.2.6.8 and 6.1.1.4'
N N 0.0061 0.0033 'International Tables Vol C Tables 4.2.6.8 and 6.1.1.4'
F F 0.0171 0.0103 'International Tables Vol C Tables 4.2.6.8 and 6.1.1.4'
Ag Ag -0.8971 1.1015 'International Tables Vol C Tables 4.2.6.8 and 6.1.1.4'

_symmetry_cell_setting           Tetragonal
_symmetry_space_group_name_H-M   'I -4 2 d'

loop_
_symmetry_equiv_pos_as_xyz
'x, y, z'
'-x, -y, z'
'y, -x, -z'
'-y, x, -z'
'-x+1/2, y, -z+3/4'
'x+1/2, -y, -z+3/4'
'-y+1/2, -x, z+3/4'
'y+1/2, x, z+3/4'
'x+1/2, y+1/2, z+1/2'
'-x+1/2, -y+1/2, z+1/2'
'y+1/2, -x+1/2, -z+1/2'
'-y+1/2, x+1/2, -z+1/2'
'-x+1, y+1/2, -z+5/4'
'x+1, -y+1/2, -z+5/4'
'-y+1, -x+1/2, z+5/4'
'y+1, x+1/2, z+5/4'

_cell_length_a                   13.3735(10)
_cell_length_b                   13.3735(10)
_cell_length_c                   39.469(6)
_cell_angle_alpha                90.00
_cell_angle_beta                 90.00
_cell_angle_gamma                90.00
_cell_volume                     7059.0(12)
_cell_formula_units_Z            4
_cell_measurement_temperature    150(2)
_cell_measurement_reflns_used    6994
_cell_measurement_theta_min      2.17
_cell_measurement_theta_max      26.31

_exptl_crystal_description       block
_exptl_crystal_colour            colorless
_exptl_crystal_size_max          0.48
_exptl_crystal_size_mid          0.43
_exptl_crystal_size_min          0.24
_exptl_crystal_density_meas      ?
_exptl_crystal_density_diffrn    1.777
_exptl_crystal_density_method    'not measured'
_exptl_crystal_F_000             3538
_exptl_absorpt_coefficient_mu    1.760
_exptl_absorpt_correction_type   multi-scan
_exptl_absorpt_correction_T_min  0.4854
_exptl_absorpt_correction_T_max  0.6773
_exptl_absorpt_process_details   SADABS

_exptl_special_details           
;
?
;

_diffrn_ambient_temperature      150(2)
_diffrn_radiation_wavelength     0.71073
_diffrn_radiation_type           MoK\a
_diffrn_radiation_source         'fine-focus sealed tube'
_diffrn_radiation_monochromator  graphite
_diffrn_measurement_device_type  'Bruker SMART APEX II CCD'
_diffrn_measurement_method       '\w scans'
_diffrn_detector_area_resol_mean ?
_diffrn_standards_number         ?
_diffrn_standards_interval_count ?
_diffrn_standards_interval_time  ?
_diffrn_standards_decay_%        ?
_diffrn_reflns_number            37176
_diffrn_reflns_av_R_equivalents  0.0391
_diffrn_reflns_av_sigmaI/netI    0.0183
_diffrn_reflns_limit_h_min       -16
_diffrn_reflns_limit_h_max       16
_diffrn_reflns_limit_k_min       -16
_diffrn_reflns_limit_k_max       16
_diffrn_reflns_limit_l_min       -48
_diffrn_reflns_limit_l_max       48
_diffrn_reflns_theta_min         1.61
_diffrn_reflns_theta_max         26.02
_reflns_number_total             3491
_reflns_number_gt                2947
_reflns_threshold_expression     >2sigma(I)

_computing_data_collection       'APEX2 (Bruker-AXS, 2007)'
_computing_cell_refinement       'APEX2 (Bruker-AXS, 2007)'
_computing_data_reduction        'APEX2 (Bruker-AXS, 2007)'
_computing_structure_solution    'SHELXS-97 (Sheldrick, 1990)'
_computing_structure_refinement  'SHELXL-97 (Sheldrick, 1997)'
_computing_molecular_graphics    ?
_computing_publication_material  ?

_refine_special_details          
;
Refinement of F^2^ against ALL reflections. The weighted R-factor wR and
goodness of fit S are based on F^2^, conventional R-factors R are based
on F, with F set to zero for negative F^2^. The threshold expression of
F^2^ > 2sigma(F^2^) is used only for calculating R-factors(gt) etc. and is
not relevant to the choice of reflections for refinement. R-factors based
on F^2^ are statistically about twice as large as those based on F, and R-
factors based on ALL data will be even larger.
;

_refine_ls_structure_factor_coef Fsqd
_refine_ls_matrix_type           full
_refine_ls_weighting_scheme      calc
_refine_ls_weighting_details     
'calc w=1/[\s^2^(Fo^2^)+(0.0456P)^2^+83.6800P] where P=(Fo^2^+2Fc^2^)/3'
_atom_sites_solution_primary     direct
_atom_sites_solution_secondary   difmap
_atom_sites_solution_hydrogens   .
_refine_ls_hydrogen_treatment    .
_refine_ls_extinction_method     none
_refine_ls_extinction_coef       ?
_refine_ls_abs_structure_details 'Flack H D (1983), Acta Cryst. A39, 876-881'
_refine_ls_abs_structure_Flack   0.01(8)
_refine_ls_number_reflns         3491
_refine_ls_number_parameters     195
_refine_ls_number_restraints     1
_refine_ls_R_factor_all          0.0715
_refine_ls_R_factor_gt           0.0499
_refine_ls_wR_factor_ref         0.1507
_refine_ls_wR_factor_gt          0.1183
_refine_ls_goodness_of_fit_ref   1.208
_refine_ls_restrained_S_all      1.208
_refine_ls_shift/su_max          0.000
_refine_ls_shift/su_mean         0.000

loop_
_atom_site_label
_atom_site_type_symbol
_atom_site_fract_x
_atom_site_fract_y
_atom_site_fract_z
_atom_site_U_iso_or_equiv
_atom_site_adp_type
_atom_site_occupancy
_atom_site_symmetry_multiplicity
_atom_site_calc_flag
_atom_site_refinement_flags
_atom_site_disorder_assembly
_atom_site_disorder_group
Ag1 Ag 0.0000 0.5000 0.09753(2) 0.0499(3) Uani 1 2 d S . .
Ag2 Ag -0.13998(6) 0.38493(6) 0.24432(2) 0.0607(2) Uani 1 1 d . . .
N1 N 0.0000 0.5000 0.1535(3) 0.047(2) Uani 1 2 d S . .
N2 N -0.0485(6) 0.5189(6) 0.2072(2) 0.0502(19) Uani 1 1 d . . .
N3 N 0.0092(7) 0.6322(5) 0.0608(2) 0.0525(18) Uani 1 1 d . . .
N4 N -0.0346(6) 0.7434(6) 0.0215(2) 0.055(2) Uani 1 1 d . . .
N5 N 0.0613(6) 0.7627(6) 0.0305(2) 0.0517(19) Uani 1 1 d . . .
C1 C -0.0713(8) 0.5280(8) 0.1750(3) 0.055(3) Uani 1 1 d . . .
C2 C -0.1695(9) 0.5728(10) 0.1642(3) 0.065(3) Uani 1 1 d . . .
C3 C -0.0609(8) 0.6673(8) 0.0402(3) 0.057(3) Uani 1 1 d . . .
C4 C 0.0839(8) 0.6957(8) 0.0535(3) 0.056(3) Uani 1 1 d . . .
C5 C 0.1857(11) 0.6931(10) 0.0703(4) 0.074(3) Uani 1 1 d . . .
C6 C -0.1630(9) 0.6205(10) 0.0372(3) 0.074(4) Uani 1 1 d . . .
F1 F -0.1575(7) 0.6641(8) 0.1525(3) 0.128(4) Uani 1 1 d . . .
F2 F -0.2080(6) 0.5242(8) 0.1391(2) 0.116(4) Uani 1 1 d . . .
F3 F -0.2315(6) 0.5826(9) 0.1885(2) 0.122(4) Uani 1 1 d . . .
F4 F 0.2157(8) 0.7811(6) 0.0783(3) 0.124(4) Uani 1 1 d . . .
F5 F 0.2558(8) 0.6651(12) 0.0477(3) 0.147(5) Uani 1 1 d . . .
F6 F 0.1929(7) 0.6310(7) 0.0933(3) 0.118(4) Uani 1 1 d . . .
F7 F -0.1985(7) 0.5944(10) 0.0664(3) 0.131(4) Uani 1 1 d . . .
F8 F -0.1567(8) 0.5335(8) 0.0207(3) 0.136(4) Uani 1 1 d . . .
F9 F -0.2261(6) 0.6737(7) 0.0211(3) 0.126(4) Uani 1 1 d . . .
N1S N -0.039(4) 0.510(15) -0.049(2) 0.27(5) Uiso 0.30 1 d PD . .

loop_
_atom_site_aniso_label
_atom_site_aniso_U_11
_atom_site_aniso_U_22
_atom_site_aniso_U_33
_atom_site_aniso_U_23
_atom_site_aniso_U_13
_atom_site_aniso_U_12
Ag1 0.0545(6) 0.0514(6) 0.0437(5) 0.000 0.000 0.0012(5)
Ag2 0.0624(5) 0.0640(5) 0.0557(4) -0.0086(4) 0.0111(4) 0.0062(4)
N1 0.039(5) 0.055(6) 0.048(6) 0.000 0.000 -0.001(6)
N2 0.045(4) 0.051(5) 0.054(4) 0.000(4) 0.002(3) 0.005(4)
N3 0.062(5) 0.039(4) 0.057(4) -0.002(3) -0.018(4) -0.007(4)
N4 0.059(5) 0.054(5) 0.053(5) 0.008(4) -0.005(4) -0.011(4)
N5 0.055(5) 0.047(4) 0.053(5) 0.019(4) -0.002(4) -0.005(4)
C1 0.062(6) 0.056(6) 0.046(5) 0.008(4) 0.012(4) 0.002(5)
C2 0.065(7) 0.079(8) 0.051(6) 0.004(5) -0.004(5) 0.012(6)
C3 0.058(6) 0.056(6) 0.058(6) 0.000(5) -0.007(5) -0.010(5)
C4 0.061(7) 0.048(6) 0.059(6) -0.003(5) -0.004(5) 0.002(5)
C5 0.070(8) 0.069(8) 0.082(8) 0.013(7) -0.018(7) -0.020(6)
C6 0.065(7) 0.078(9) 0.081(8) 0.023(7) -0.020(6) -0.025(7)
F1 0.099(7) 0.095(6) 0.192(11) 0.033(7) -0.043(7) 0.033(5)
F2 0.074(5) 0.170(9) 0.104(6) -0.062(6) -0.038(4) 0.054(6)
F3 0.068(5) 0.215(12) 0.084(5) -0.001(6) 0.013(4) 0.053(6)
F4 0.122(8) 0.065(5) 0.185(10) 0.017(6) -0.080(8) -0.027(5)
F5 0.067(6) 0.211(13) 0.164(11) 0.015(10) -0.007(7) 0.003(7)
F6 0.092(6) 0.112(7) 0.150(8) 0.067(6) -0.065(6) -0.033(5)
F7 0.073(5) 0.200(12) 0.122(7) 0.058(8) -0.016(5) -0.054(7)
F8 0.109(7) 0.109(7) 0.189(11) -0.032(7) -0.038(7) -0.046(6)
F9 0.069(5) 0.113(7) 0.197(11) 0.076(7) -0.062(6) -0.026(5)

_geom_special_details            
;
All esds (except the esd in the dihedral angle between two l.s. planes)
are estimated using the full covariance matrix. The cell esds are taken
into account individually in the estimation of esds in distances, angles
and torsion angles; correlations between esds in cell parameters are only
used when they are defined by crystal symmetry. An approximate (isotropic)
treatment of cell esds is used for estimating esds involving l.s. planes.
;

loop_
_geom_bond_atom_site_label_1
_geom_bond_atom_site_label_2
_geom_bond_distance
_geom_bond_site_symmetry_2
_geom_bond_publ_flag
Ag1 N1 2.208(10) . ?
Ag1 N3 2.289(7) 2_565 ?
Ag1 N3 2.289(7) . ?
Ag2 N5 2.177(8) 13_444 ?
Ag2 N4 2.177(9) 16_354 ?
Ag2 N2 2.617(8) . ?
Ag2 N2 2.660(8) 12 ?
Ag2 Ag2 3.4563(12) 11_455 ?
Ag2 Ag2 4.8466(18) 2_565 ?
N1 C1 1.330(12) 2_565 ?
N1 C1 1.330(12) . ?
N2 C1 1.315(13) . ?
N2 N2 1.392(15) 2_565 ?
N3 C3 1.327(14) . ?
N3 C4 1.342(14) . ?
N4 C3 1.306(14) . ?
N4 N5 1.355(11) . ?
N4 Ag2 2.177(9) 8_464 ?
N5 C4 1.312(14) . ?
N5 Ag2 2.177(8) 13_454 ?
C1 C2 1.504(16) . ?
C2 F3 1.274(14) . ?
C2 F2 1.293(14) . ?
C2 F1 1.317(15) . ?
C3 C6 1.506(15) . ?
C4 C5 1.514(17) . ?
C5 F6 1.236(15) . ?
C5 F4 1.284(15) . ?
C5 F5 1.346(18) . ?
C6 F9 1.272(14) . ?
C6 F7 1.297(15) . ?
C6 F8 1.336(17) . ?
N1S N1S 1.08(2) 2_565 ?

loop_
_geom_angle_atom_site_label_1
_geom_angle_atom_site_label_2
_geom_angle_atom_site_label_3
_geom_angle
_geom_angle_site_symmetry_1
_geom_angle_site_symmetry_3
_geom_angle_publ_flag
N1 Ag1 N3 129.25(19) . 2_565 ?
N1 Ag1 N3 129.25(19) . . ?
N3 Ag1 N3 101.5(4) 2_565 . ?
N5 Ag2 N4 159.9(3) 13_444 16_354 ?
N5 Ag2 N2 92.1(3) 13_444 . ?
N4 Ag2 N2 105.8(3) 16_354 . ?
N5 Ag2 N2 106.3(3) 13_444 12 ?
N4 Ag2 N2 85.2(3) 16_354 12 ?
N2 Ag2 N2 83.6(3) . 12 ?
N5 Ag2 Ag2 138.8(2) 13_444 11_455 ?
N4 Ag2 Ag2 61.1(2) 16_354 11_455 ?
N2 Ag2 Ag2 49.61(18) . 11_455 ?
N2 Ag2 Ag2 61.17(17) 12 11_455 ?
N5 Ag2 Ag2 95.9(2) 13_444 2_565 ?
N4 Ag2 Ag2 103.8(2) 16_354 2_565 ?
N2 Ag2 Ag2 37.27(18) . 2_565 ?
N2 Ag2 Ag2 46.92(18) 12 2_565 ?
C1 N1 C1 100.8(12) 2_565 . ?
C1 N1 Ag1 129.6(6) 2_565 . ?
C1 N1 Ag1 129.6(6) . . ?
C1 N2 N2 104.5(6) . 2_565 ?
C1 N2 Ag2 119.8(7) . . ?
N2 N2 Ag2 100.8(6) 2_565 . ?
C3 N3 C4 99.8(8) . . ?
C3 N3 Ag1 128.6(7) . . ?
C4 N3 Ag1 131.6(7) . . ?
C3 N4 N5 104.8(8) . . ?
C3 N4 Ag2 134.7(7) . 8_464 ?
N5 N4 Ag2 117.4(6) . 8_464 ?
C4 N5 N4 105.6(8) . . ?
C4 N5 Ag2 135.5(7) . 13_454 ?
N4 N5 Ag2 118.8(6) . 13_454 ?
N2 C1 N1 115.1(10) . . ?
N2 C1 C2 120.8(9) . . ?
N1 C1 C2 124.0(9) . . ?
F3 C2 F2 111.8(12) . . ?
F3 C2 F1 104.4(12) . . ?
F2 C2 F1 104.2(11) . . ?
F3 C2 C1 113.4(9) . . ?
F2 C2 C1 111.4(10) . . ?
F1 C2 C1 111.2(11) . . ?
N4 C3 N3 115.6(9) . . ?
N4 C3 C6 121.6(10) . . ?
N3 C3 C6 122.8(10) . . ?
N5 C4 N3 114.2(9) . . ?
N5 C4 C5 121.7(10) . . ?
N3 C4 C5 124.2(10) . . ?
F6 C5 F4 114.1(13) . . ?
F6 C5 F5 104.2(13) . . ?
F4 C5 F5 101.6(13) . . ?
F6 C5 C4 114.0(11) . . ?
F4 C5 C4 111.6(12) . . ?
F5 C5 C4 110.2(11) . . ?
F9 C6 F7 110.5(13) . . ?
F9 C6 F8 106.7(11) . . ?
F7 C6 F8 102.8(12) . . ?
F9 C6 C3 114.2(10) . . ?
F7 C6 C3 111.9(10) . . ?
F8 C6 C3 110.1(11) . . ?

_diffrn_measured_fraction_theta_max 0.998
_diffrn_reflns_theta_full        26.02
_diffrn_measured_fraction_theta_full 0.998
_refine_diff_density_max         0.891
_refine_diff_density_min         -0.638
_refine_diff_density_rms         0.133
