####################################################################### 
# 
# This file contains crystal structure data downloaded from the 
# Cambridge Structural Database (CSD) hosted by the Cambridge 
# Crystallographic Data Centre (CCDC).
# 
# Full information about CCDC data access policies and citation 
# guidelines are available at http://www.ccdc.cam.ac.uk/access/V1 
# 
# Audit and citation data items may have been added by the CCDC. 
# Please retain this information to preserve the provenance of 
# this file and to allow appropriate attribution of the data. 
# 
#######################################################################

data_FMOF-1T119K
_audit_block_doi                 10.5517/ccqqh30
_database_code_depnum_ccdc_archive 'CCDC 677012'
loop_
_citation_id
_citation_doi
_citation_year
1 10.1002/anie.200804739 2009
_audit_update_record             
;
2008-02-05 deposited with the CCDC.	2024-07-09 downloaded from the CCDC.
;

_audit_creation_method           SHELXL-97
_chemical_name_systematic        
;
?
;
_chemical_name_common            {Ag2[Ag4Tz6]}n
_chemical_melting_point          ?
_chemical_formula_moiety         'C24 Ag6 F36 N18, 3.5(N2)'
_chemical_formula_sum            'C24 Ag6 F36 N25'
_chemical_formula_weight         1969.71

loop_
_atom_type_symbol
_atom_type_description
_atom_type_scat_dispersion_real
_atom_type_scat_dispersion_imag
_atom_type_scat_source
C C 0.0033 0.0016 'International Tables Vol C Tables 4.2.6.8 and 6.1.1.4'
N N 0.0061 0.0033 'International Tables Vol C Tables 4.2.6.8 and 6.1.1.4'
F F 0.0171 0.0103 'International Tables Vol C Tables 4.2.6.8 and 6.1.1.4'
Ag Ag -0.8971 1.1015 'International Tables Vol C Tables 4.2.6.8 and 6.1.1.4'

_symmetry_cell_setting           Tetragonal
_symmetry_space_group_name_H-M   'I -4 2 d'

loop_
_symmetry_equiv_pos_as_xyz
'x, y, z'
'-x, -y, z'
'y, -x, -z'
'-y, x, -z'
'-x+1/2, y, -z+3/4'
'x+1/2, -y, -z+3/4'
'-y+1/2, -x, z+3/4'
'y+1/2, x, z+3/4'
'x+1/2, y+1/2, z+1/2'
'-x+1/2, -y+1/2, z+1/2'
'y+1/2, -x+1/2, -z+1/2'
'-y+1/2, x+1/2, -z+1/2'
'-x+1, y+1/2, -z+5/4'
'x+1, -y+1/2, -z+5/4'
'-y+1, -x+1/2, z+5/4'
'y+1, x+1/2, z+5/4'

_cell_length_a                   12.950(4)
_cell_length_b                   12.950(4)
_cell_length_c                   40.69(2)
_cell_angle_alpha                90.00
_cell_angle_beta                 90.00
_cell_angle_gamma                90.00
_cell_volume                     6824(5)
_cell_formula_units_Z            4
_cell_measurement_temperature    119(2)
_cell_measurement_reflns_used    8217
_cell_measurement_theta_min      2.17
_cell_measurement_theta_max      27.28

_exptl_crystal_description       block
_exptl_crystal_colour            colorless
_exptl_crystal_size_max          0.47
_exptl_crystal_size_mid          0.41
_exptl_crystal_size_min          0.32
_exptl_crystal_density_meas      ?
_exptl_crystal_density_diffrn    1.917
_exptl_crystal_density_method    'not measured'
_exptl_crystal_F_000             3700
_exptl_absorpt_coefficient_mu    1.828
_exptl_absorpt_correction_type   multi-scan
_exptl_absorpt_correction_T_min  0.4804
_exptl_absorpt_correction_T_max  0.5924
_exptl_absorpt_process_details   SADABS

_exptl_special_details           
;
?
;

_diffrn_ambient_temperature      119(2)
_diffrn_radiation_wavelength     0.71073
_diffrn_radiation_type           MoK\a
_diffrn_radiation_source         'fine-focus sealed tube'
_diffrn_radiation_monochromator  graphite
_diffrn_measurement_device_type  'Bruker SMART APEX II CCD'
_diffrn_measurement_method       '\w scans'
_diffrn_detector_area_resol_mean ?
_diffrn_standards_number         ?
_diffrn_standards_interval_count ?
_diffrn_standards_interval_time  ?
_diffrn_standards_decay_%        ?
_diffrn_reflns_number            33966
_diffrn_reflns_av_R_equivalents  0.0598
_diffrn_reflns_av_sigmaI/netI    0.0227
_diffrn_reflns_limit_h_min       -16
_diffrn_reflns_limit_h_max       16
_diffrn_reflns_limit_k_min       -15
_diffrn_reflns_limit_k_max       16
_diffrn_reflns_limit_l_min       -51
_diffrn_reflns_limit_l_max       52
_diffrn_reflns_theta_min         1.65
_diffrn_reflns_theta_max         27.42
_reflns_number_total             3875
_reflns_number_gt                3763
_reflns_threshold_expression     >2sigma(I)

_computing_data_collection       'APEX2 (Bruker_AXS, 2007)'
_computing_cell_refinement       'APEX2 (Bruker_AXS, 2007)'
_computing_data_reduction        'APEX2 (Bruker_AXS, 2007)'
_computing_structure_solution    'SHELXS-97 (Sheldrick, 1990)'
_computing_structure_refinement  'SHELXL-97 (Sheldrick, 1997)'
_computing_molecular_graphics    ?
_computing_publication_material  ?

_refine_special_details          
;
Refinement of F^2^ against ALL reflections. The weighted R-factor wR and
goodness of fit S are based on F^2^, conventional R-factors R are based
on F, with F set to zero for negative F^2^. The threshold expression of
F^2^ > 2sigma(F^2^) is used only for calculating R-factors(gt) etc. and is
not relevant to the choice of reflections for refinement. R-factors based
on F^2^ are statistically about twice as large as those based on F, and R-
factors based on ALL data will be even larger.
;

_refine_ls_structure_factor_coef Fsqd
_refine_ls_matrix_type           full
_refine_ls_weighting_scheme      calc
_refine_ls_weighting_details     
'calc w=1/[\s^2^(Fo^2^)+(0.0435P)^2^+3.2068P] where P=(Fo^2^+2Fc^2^)/3'
_atom_sites_solution_primary     direct
_atom_sites_solution_secondary   difmap
_atom_sites_solution_hydrogens   .
_refine_ls_hydrogen_treatment    .
_refine_ls_extinction_method     none
_refine_ls_extinction_coef       ?
_refine_ls_abs_structure_details 'Flack H D (1983), Acta Cryst. A39, 876-881'
_refine_ls_abs_structure_Flack   -0.03(2)
_refine_ls_number_reflns         3875
_refine_ls_number_parameters     214
_refine_ls_number_restraints     3
_refine_ls_R_factor_all          0.0225
_refine_ls_R_factor_gt           0.0212
_refine_ls_wR_factor_ref         0.0651
_refine_ls_wR_factor_gt          0.0638
_refine_ls_goodness_of_fit_ref   1.142
_refine_ls_restrained_S_all      1.144
_refine_ls_shift/su_max          0.001
_refine_ls_shift/su_mean         0.000

loop_
_atom_site_label
_atom_site_type_symbol
_atom_site_fract_x
_atom_site_fract_y
_atom_site_fract_z
_atom_site_U_iso_or_equiv
_atom_site_adp_type
_atom_site_occupancy
_atom_site_symmetry_multiplicity
_atom_site_calc_flag
_atom_site_refinement_flags
_atom_site_disorder_assembly
_atom_site_disorder_group
Ag1 Ag 0.0000 0.5000 0.101824(7) 0.02660(7) Uani 1 2 d S . .
Ag2 Ag -0.144685(17) 0.380603(18) 0.245098(5) 0.03399(7) Uani 1 1 d . . .
N1 N 0.0000 0.5000 0.15597(8) 0.0282(6) Uani 1 2 d S . .
N2 N -0.0496(2) 0.5184(2) 0.20848(6) 0.0306(5) Uani 1 1 d . . .
N3 N 0.0087(2) 0.63308(18) 0.06435(5) 0.0303(5) Uani 1 1 d . . .
N4 N -0.0374(2) 0.7386(2) 0.02349(6) 0.0328(5) Uani 1 1 d . . .
N5 N 0.06332(19) 0.75928(19) 0.03127(6) 0.0305(5) Uani 1 1 d . . .
C1 C -0.0746(2) 0.5282(2) 0.17713(7) 0.0299(6) Uani 1 1 d . . .
C2 C -0.1760(3) 0.5720(3) 0.16595(7) 0.0355(7) Uani 1 1 d . . .
C3 C -0.0652(2) 0.6640(2) 0.04368(7) 0.0312(6) Uani 1 1 d . . .
C4 C 0.0868(2) 0.6953(2) 0.05530(7) 0.0300(6) Uani 1 1 d . . .
C5 C 0.1915(3) 0.6983(3) 0.07105(10) 0.0412(8) Uani 1 1 d . . .
C6 C -0.1718(3) 0.6172(3) 0.04305(10) 0.0465(8) Uani 1 1 d . . .
F1 F -0.1645(2) 0.66777(19) 0.15489(9) 0.0676(8) Uani 1 1 d . . .
F2 F -0.21775(17) 0.5177(2) 0.14198(5) 0.0546(6) Uani 1 1 d . . .
F3 F -0.24280(19) 0.5772(3) 0.19044(5) 0.0731(9) Uani 1 1 d . . .
F4 F 0.2120(2) 0.78879(19) 0.08347(9) 0.0801(11) Uani 1 1 d . . .
F5 F 0.2662(2) 0.6818(3) 0.04902(8) 0.0822(9) Uani 1 1 d . . .
F6 F 0.2021(2) 0.6271(2) 0.09372(7) 0.0629(7) Uani 1 1 d . . .
F7 F -0.2064(2) 0.5994(3) 0.07299(6) 0.0686(8) Uani 1 1 d . . .
F8 F -0.1696(2) 0.5246(2) 0.02777(8) 0.0742(8) Uani 1 1 d . . .
F9 F -0.23847(18) 0.6750(2) 0.02736(8) 0.0709(8) Uani 1 1 d . . .
N1S N -0.075(2) 0.523(4) -0.0517(8) 0.286(18) Uiso 0.50 1 d PD . .
N1S' N 0.0000 0.5000 -0.0371(7) 0.283(12) Uiso 1 2 d SD . .
N2S N -0.411(6) 0.521(9) -0.118(2) 0.34(5) Uiso 0.25 1 d PD . .
N2S' N -0.476(5) 0.538(4) -0.1020(12) 0.20(2) Uiso 0.25 1 d PD . .
N3S N -0.476(9) 0.541(9) -0.013(3) 0.10(4) Uiso 0.05 1 d PD A -1
N3S' N -0.415(8) 0.486(11) -0.018(2) 0.34(5) Uiso 0.20 1 d PD A -1

loop_
_atom_site_aniso_label
_atom_site_aniso_U_11
_atom_site_aniso_U_22
_atom_site_aniso_U_33
_atom_site_aniso_U_23
_atom_site_aniso_U_13
_atom_site_aniso_U_12
Ag1 0.03164(14) 0.03010(14) 0.01805(13) 0.000 0.000 0.00115(12)
Ag2 0.03779(12) 0.03899(12) 0.02519(12) -0.00566(9) 0.00706(8) 0.00425(9)
N1 0.0306(16) 0.0318(16) 0.0222(15) 0.000 0.000 0.0038(16)
N2 0.0324(12) 0.0366(14) 0.0229(11) 0.0003(10) 0.0003(9) 0.0026(10)
N3 0.0370(12) 0.0276(11) 0.0264(10) 0.0038(8) -0.0047(10) -0.0039(10)
N4 0.0354(12) 0.0342(13) 0.0288(11) 0.0049(10) -0.0056(10) -0.0025(10)
N5 0.0332(12) 0.0299(12) 0.0283(11) 0.0046(10) -0.0029(10) -0.0017(10)
C1 0.0319(13) 0.0339(14) 0.0237(12) -0.0029(11) 0.0020(11) 0.0006(11)
C2 0.0362(16) 0.0446(16) 0.0258(14) -0.0045(12) -0.0031(11) 0.0122(13)
C3 0.0340(14) 0.0311(14) 0.0284(13) 0.0038(11) -0.0051(11) -0.0026(12)
C4 0.0359(15) 0.0285(13) 0.0255(12) 0.0013(11) -0.0027(11) -0.0006(11)
C5 0.0405(17) 0.0361(15) 0.047(2) 0.0103(14) -0.0110(15) -0.0079(13)
C6 0.0413(18) 0.0415(18) 0.057(2) 0.0176(16) -0.0158(15) -0.0093(15)
F1 0.0613(15) 0.0465(13) 0.095(2) 0.0130(13) -0.0242(14) 0.0103(11)
F2 0.0459(11) 0.0678(15) 0.0501(11) -0.0183(11) -0.0188(9) 0.0139(11)
F3 0.0425(12) 0.143(3) 0.0341(10) 0.0010(13) 0.0076(9) 0.0340(15)
F4 0.0842(19) 0.0400(12) 0.116(3) -0.0097(14) -0.0608(19) -0.0047(13)
F5 0.0355(12) 0.140(3) 0.0713(18) 0.0090(18) -0.0029(12) -0.0084(15)
F6 0.0544(13) 0.0637(15) 0.0705(15) 0.0340(13) -0.0305(11) -0.0153(12)
F7 0.0479(13) 0.097(2) 0.0609(15) 0.0298(14) -0.0003(11) -0.0268(13)
F8 0.0703(17) 0.0518(14) 0.1005(19) -0.0049(14) -0.0305(15) -0.0221(12)
F9 0.0394(11) 0.0708(16) 0.103(2) 0.0448(15) -0.0286(13) -0.0145(11)

_geom_special_details            
;
All esds (except the esd in the dihedral angle between two l.s. planes)
are estimated using the full covariance matrix. The cell esds are taken
into account individually in the estimation of esds in distances, angles
and torsion angles; correlations between esds in cell parameters are only
used when they are defined by crystal symmetry. An approximate (isotropic)
treatment of cell esds is used for estimating esds involving l.s. planes.
;

loop_
_geom_bond_atom_site_label_1
_geom_bond_atom_site_label_2
_geom_bond_distance
_geom_bond_site_symmetry_2
_geom_bond_publ_flag
Ag1 N1 2.203(4) . ?
Ag1 N3 2.304(2) 2_565 ?
Ag1 N3 2.304(2) . ?
Ag2 N5 2.175(2) 13_444 ?
Ag2 N4 2.178(3) 16_354 ?
Ag2 N2 2.630(3) . ?
Ag2 N2 2.657(3) 12 ?
Ag2 Ag2 3.4587(10) 11_455 ?
Ag2 Ag2 4.8587(15) 2_565 ?
N1 C1 1.344(4) . ?
N1 C1 1.344(4) 2_565 ?
N2 C1 1.322(4) . ?
N2 N2 1.371(5) 2_565 ?
N3 C3 1.335(4) . ?
N3 C4 1.344(4) . ?
N4 C3 1.318(4) . ?
N4 N5 1.369(4) . ?
N4 Ag2 2.178(3) 8_464 ?
N5 C4 1.318(4) . ?
N5 Ag2 2.175(2) 13_454 ?
C1 C2 1.501(4) . ?
C2 F2 1.318(4) . ?
C2 F3 1.321(4) . ?
C2 F1 1.328(5) . ?
C3 C6 1.508(5) . ?
C4 C5 1.501(4) . ?
C5 F4 1.303(4) . ?
C5 F6 1.311(4) . ?
C5 F5 1.336(5) . ?
C6 F9 1.309(4) . ?
C6 F7 1.318(5) . ?
C6 F8 1.350(5) . ?
N1S N1S' 1.173(19) . ?
N1S' N1S 1.173(19) 2_565 ?
N2S N2S' 1.10(2) . ?
N2S' N2S' 1.17(11) 2_465 ?
N3S N3S' 1.089(10) . ?

loop_
_geom_angle_atom_site_label_1
_geom_angle_atom_site_label_2
_geom_angle_atom_site_label_3
_geom_angle
_geom_angle_site_symmetry_1
_geom_angle_site_symmetry_3
_geom_angle_publ_flag
N1 Ag1 N3 131.44(6) . 2_565 ?
N1 Ag1 N3 131.44(6) . . ?
N3 Ag1 N3 97.13(12) 2_565 . ?
N5 Ag2 N4 161.76(10) 13_444 16_354 ?
N5 Ag2 N2 89.08(9) 13_444 . ?
N4 Ag2 N2 107.13(9) 16_354 . ?
N5 Ag2 N2 107.34(9) 13_444 12 ?
N4 Ag2 N2 83.37(9) 16_354 12 ?
N2 Ag2 N2 83.33(11) . 12 ?
N5 Ag2 Ag2 136.50(7) 13_444 11_455 ?
N4 Ag2 Ag2 61.50(7) 16_354 11_455 ?
N2 Ag2 Ag2 49.47(6) . 11_455 ?
N2 Ag2 Ag2 61.54(6) 12 11_455 ?
N5 Ag2 Ag2 94.94(7) 13_444 2_565 ?
N4 Ag2 Ag2 103.01(7) 16_354 2_565 ?
N2 Ag2 Ag2 37.56(6) . 2_565 ?
N2 Ag2 Ag2 46.27(6) 12 2_565 ?
Ag2 Ag2 Ag2 45.381(1) 11_455 2_565 ?
C1 N1 C1 100.4(3) . 2_565 ?
C1 N1 Ag1 129.82(17) . . ?
C1 N1 Ag1 129.82(17) 2_565 . ?
C1 N2 N2 105.21(17) . 2_565 ?
C1 N2 Ag2 119.8(2) . . ?
N2 N2 Ag2 101.7(2) 2_565 . ?
C3 N3 C4 100.8(2) . . ?
C3 N3 Ag1 127.3(2) . . ?
C4 N3 Ag1 131.77(19) . . ?
C3 N4 N5 105.0(2) . . ?
C3 N4 Ag2 134.9(2) . 8_464 ?
N5 N4 Ag2 116.82(19) . 8_464 ?
C4 N5 N4 105.6(2) . . ?
C4 N5 Ag2 135.2(2) . 13_454 ?
N4 N5 Ag2 119.28(19) . 13_454 ?
N2 C1 N1 114.6(3) . . ?
N2 C1 C2 122.8(3) . . ?
N1 C1 C2 122.5(3) . . ?
F2 C2 F3 108.5(3) . . ?
F2 C2 F1 107.0(3) . . ?
F3 C2 F1 106.3(3) . . ?
F2 C2 C1 112.4(3) . . ?
F3 C2 C1 111.4(3) . . ?
F1 C2 C1 111.0(3) . . ?
N4 C3 N3 114.6(3) . . ?
N4 C3 C6 122.3(3) . . ?
N3 C3 C6 123.1(3) . . ?
N5 C4 N3 114.0(3) . . ?
N5 C4 C5 120.6(3) . . ?
N3 C4 C5 125.4(3) . . ?
F4 C5 F6 109.8(3) . . ?
F4 C5 F5 104.9(3) . . ?
F6 C5 F5 106.5(3) . . ?
F4 C5 C4 111.9(3) . . ?
F6 C5 C4 112.1(3) . . ?
F5 C5 C4 111.3(3) . . ?
F9 C6 F7 109.0(4) . . ?
F9 C6 F8 107.3(3) . . ?
F7 C6 F8 106.1(3) . . ?
F9 C6 C3 112.5(3) . . ?
F7 C6 C3 111.4(3) . . ?
F8 C6 C3 110.2(3) . . ?

_diffrn_measured_fraction_theta_max 0.997
_diffrn_reflns_theta_full        27.42
_diffrn_measured_fraction_theta_full 0.997
_refine_diff_density_max         0.660
_refine_diff_density_min         -0.542
_refine_diff_density_rms         0.140
