
#######################################################################
#
#                 Cambridge Crystallographic Data Centre
#                                CCDC
#
#######################################################################
#
# If this CIF has been generated from an entry in the Cambridge
# Structural Database, then it will include bibliographic, chemical,
# crystal, experimental, refinement or atomic coordinate data resulting
# from the CCDC's data processing and validation procedures.
#
#######################################################################

data_CSD_CIF_DANXUM
_audit_creation_date 2005-10-20
_audit_creation_method CSD-ConQuest-V1
_database_code_CSD DANXUM
_database_code_depnum_ccdc_archive 'CCDC 272236; CCDC 415019'
_database_code_depnum_ccdc_fiz 'CSD 425019'
_chemical_formula_sum 'C1 Mn1 N2'
_chemical_formula_moiety
;
(C1 Mn1 N2)n
;
_journal_coden_Cambridge 9
_journal_volume 44
_journal_year 2005
_journal_page_first 3001
_journal_name_full 'Inorg.Chem. '
loop_
_publ_author_name
"Xiaohui Liu"
"M.Krott"
"P.Muller"
"Chunhua Hu"
"H.Lueken"
"R.Dronskowski"
_chemical_name_systematic
;
catena-((\m~6~-Carbodiimide)-manganese)
;
_chemical_name_common
;
Teaching Subset: Fundamental Chemistry
;
_cell_volume    140.128
_exptl_crystal_colour 'green'
_exptl_crystal_density_diffrn 1.125
_exptl_special_details
;
Isotypic with the Ca analogue and the high temperature phases of NaN3, MgNCN, 
CdNCN and beta-SrNCN
;
_exptl_crystal_description 'hexagonal prism'
_diffrn_ambient_temperature 293
#These two values have been output from a single CSD field.
_refine_ls_R_factor_gt 0.0251
_refine_ls_wR_factor_gt 0.0251
_symmetry_cell_setting rhombohedral
_symmetry_space_group_name_H-M 'R -3 m'
_symmetry_Int_Tables_number 166
loop_
_symmetry_equiv_pos_site_id
_symmetry_equiv_pos_as_xyz
1 x,y,z
2 -y,x-y,z
3 -x+y,-x,z
4 y,x,-z
5 2/3+x,1/3+y,1/3+z
6 2/3-y,1/3+x-y,1/3+z
7 2/3-x+y,1/3-x,1/3+z
8 2/3+y,1/3+x,1/3-z
9 1/3+x,2/3+y,2/3+z
10 1/3+y,2/3+x,2/3-z
11 x-y,-y,-z
12 -x,-x+y,-z
13 1/3-y,2/3+x-y,2/3+z
14 1/3-x+y,2/3-x,2/3+z
15 1/3+x-y,2/3-y,2/3-z
16 1/3-x,2/3-x+y,2/3-z
17 2/3+x-y,1/3-y,1/3-z
18 2/3-x,1/3-x+y,1/3-z
19 -x,-y,-z
20 y,-x+y,-z
21 x-y,x,-z
22 -y,-x,z
23 -2/3-x,-1/3-y,-1/3-z
24 -2/3+y,-1/3-x+y,-1/3-z
25 -2/3+x-y,-1/3+x,-1/3-z
26 -2/3-y,-1/3-x,-1/3+z
27 -1/3-x,-2/3-y,-2/3-z
28 -1/3-y,-2/3-x,-2/3+z
29 -x+y,y,z
30 x,x-y,z
31 -1/3+y,-2/3-x+y,-2/3-z
32 -1/3+x-y,-2/3+x,-2/3-z
33 -1/3-x+y,-2/3+y,-2/3+z
34 -1/3+x,-2/3+x-y,-2/3+z
35 -2/3-x+y,-1/3+y,-1/3+z
36 -2/3+x,-1/3+x-y,-1/3+z
_cell_length_a 3.3583(4)
_cell_length_b 3.3583(4)
_cell_length_c 14.3468(19)
_cell_angle_alpha 90
_cell_angle_beta 90
_cell_angle_gamma 120
_cell_formula_units_Z 1
loop_
_atom_type_symbol
_atom_type_radius_bond
C 0.68
Mn 1.35
N 0.68
loop_
_atom_site_label
_atom_site_type_symbol
_atom_site_fract_x
_atom_site_fract_y
_atom_site_fract_z
Mn1 Mn 0.33330 0.66670 0.66670
C1 C 0.00000 0.00000 0.50000
N1 N 0.00000 0.00000 0.5855(3)
Mn1* Mn -0.66670 -0.33330 0.66670
Mn1** Mn 0.33330 -0.33330 0.66670
Mn1C Mn -0.33330 -0.66670 0.33330
Mn1C* Mn -0.33330 0.33330 0.33330
Mn1C** Mn 0.66670 0.33330 0.33330
N1C N 0.00000 0.00000 0.4145(3)
N1* N 0.00000 1.00000 0.5855(3)
N1** N 1.00000 1.00000 0.5855(3)
N1G N -0.33333 0.33333 0.747833(300)
N1G* N 0.66667 0.33333 0.747833(300)
N1G** N 0.66667 1.33333 0.747833(300)
#END
