
#######################################################################
#
#                 Cambridge Crystallographic Data Centre
#                                CCDC
#
#######################################################################
#
# If this CIF has been generated from an entry in the Cambridge
# Structural Database, then it will include bibliographic, chemical,
# crystal, experimental, refinement or atomic coordinate data resulting
# from the CCDC's data processing and validation procedures.
#
#######################################################################

data_CSD_CIF_DTFMHG02
_audit_creation_date 1978-01-11
_audit_creation_method CSD-ConQuest-V1
_database_code_CSD DTFMHG02
_database_code_depnum_ccdc_archive 'CCDC 1145549'
_chemical_formula_sum 'C2 F6 Hg1'
_chemical_formula_moiety
;
C2 F6 Hg1
;
_journal_coden_Cambridge 36
_journal_volume 135
_journal_year 1977
_journal_page_first 281
_journal_name_full 'J.Organomet.Chem. '
loop_
_publ_author_name
"D.J.Brauer"
"H.Burger"
"R.Eujen"
_chemical_name_systematic
;
bis(Trifluoromethyl)-mercury
;
_chemical_name_common
;
Teaching Subset: Fundamental Chemistry, Symmetry
;
_cell_volume    536.773
_exptl_crystal_density_diffrn 4.19
_diffrn_ambient_temperature ?
_diffrn_special_details
;
The study was carried out at room temperature,in the range 283-303K

;
#These two values have been output from a single CSD field.
_refine_ls_R_factor_gt 0.023
_refine_ls_wR_factor_gt 0.023
_symmetry_cell_setting cubic
_symmetry_space_group_name_H-M 'P a 3'
_symmetry_Int_Tables_number 205
loop_
_symmetry_equiv_pos_site_id
_symmetry_equiv_pos_as_xyz
1 x,y,z
2 z,x,y
3 y,z,x
4 -x,1/2+y,1/2-z
5 -z,1/2+x,1/2-y
6 -y,1/2+z,1/2-x
7 1/2-x,-y,1/2+z
8 1/2-z,-x,1/2+y
9 1/2-y,-z,1/2+x
10 1/2+x,1/2-y,-z
11 1/2+z,1/2-x,-y
12 1/2+y,1/2-z,-x
13 -x,-y,-z
14 -z,-x,-y
15 -y,-z,-x
16 x,-1/2-y,-1/2+z
17 z,-1/2-x,-1/2+y
18 y,-1/2-z,-1/2+x
19 -1/2+x,y,-1/2-z
20 -1/2+z,x,-1/2-y
21 -1/2+y,z,-1/2-x
22 -1/2-x,-1/2+y,z
23 -1/2-z,-1/2+x,y
24 -1/2-y,-1/2+z,x
_cell_length_a 8.127(2)
_cell_length_b 8.127(2)
_cell_length_c 8.127(2)
_cell_angle_alpha 90
_cell_angle_beta 90
_cell_angle_gamma 90
_cell_formula_units_Z 4
loop_
_atom_type_symbol
_atom_type_radius_bond
C 0.68
F 0.64
Hg 1.70
loop_
_atom_site_label
_atom_site_type_symbol
_atom_site_fract_x
_atom_site_fract_y
_atom_site_fract_z
Hg1 Hg 0.00000 0.00000 0.00000
C1 C 0.14990 0.14990 0.14990
F1 F 0.08180 0.29510 0.17660
C1L C -0.14990 -0.14990 -0.14990
F1A F 0.17660 0.08180 0.29510
F1B F 0.29510 0.17660 0.08180
F1L F -0.08180 -0.29510 -0.17660
F1M F -0.17660 -0.08180 -0.29510
F1N F -0.29510 -0.17660 -0.08180
#END
