
#######################################################################
#
#                 Cambridge Crystallographic Data Centre
#                                CCDC
#
#######################################################################
#
# If this CIF has been generated from an entry in the Cambridge
# Structural Database, then it will include bibliographic, chemical,
# crystal, experimental, refinement or atomic coordinate data resulting
# from the CCDC's data processing and validation procedures.
#
#######################################################################

data_CSD_CIF_ESOTAI
_audit_creation_date 2011-09-07
_audit_creation_method CSD-ConQuest-V1
_database_code_CSD ESOTAI
_database_code_depnum_ccdc_archive 'CCDC 813000'
_chemical_formula_sum 'C2 Au1 F3 O1'
_chemical_formula_moiety
;
C2 Au1 F3 O1
;
_journal_coden_Cambridge 179
_journal_volume 50
_journal_year 2011
_journal_page_first 6571
_journal_name_full 'Angew.Chem.,Int.Ed. '
loop_
_publ_author_name
"S.Martinez-Salvador"
"J.Fornies"
"A.Martin"
"B.Menjon"
_chemical_name_systematic
;
Carbonyl-trifluoromethyl-gold(i)
;
_chemical_name_common
;
Teaching Subset: Fundamental Chemistry, Symmetry
;
_cell_volume    907.517
_exptl_crystal_colour 'colorless'
_exptl_crystal_density_diffrn 4.303
_exptl_special_details
;
extremely moisture-sensitive

;
_exptl_crystal_description 'block'
_diffrn_ambient_temperature 100
#These two values have been output from a single CSD field.
_refine_ls_R_factor_gt 0.0252
_refine_ls_wR_factor_gt 0.0252
_symmetry_cell_setting cubic
_symmetry_space_group_name_H-M 'I 21 3'
_symmetry_Int_Tables_number 199
loop_
_symmetry_equiv_pos_site_id
_symmetry_equiv_pos_as_xyz
1 x,y,z
2 1/2-x,-y,1/2+z
3 -x,1/2+y,1/2-z
4 1/2+x,1/2-y,-z
5 z,x,y
6 1/2+z,1/2-x,-y
7 1/2-z,-x,1/2+y
8 -z,1/2+x,1/2-y
9 y,z,x
10 -y,1/2+z,1/2-x
11 1/2+y,1/2-z,-x
12 1/2-y,-z,1/2+x
13 1/2+x,1/2+y,1/2+z
14 -x,1/2-y,z
15 1/2-x,y,-z
16 x,-y,1/2-z
17 1/2+z,1/2+x,1/2+y
18 z,-x,1/2-y
19 -z,1/2-x,y
20 1/2-z,x,-y
21 1/2+y,1/2+z,1/2+x
22 1/2-y,z,-x
23 y,-z,1/2-x
24 -y,1/2-z,x
_cell_length_a 9.6817(1)
_cell_length_b 9.6817(1)
_cell_length_c 9.6817(1)
_cell_angle_alpha 90
_cell_angle_beta 90
_cell_angle_gamma 90
_cell_formula_units_Z 8
loop_
_atom_type_symbol
_atom_type_radius_bond
C 0.68
Au 1.36
F 0.64
O 0.68
loop_
_atom_site_label
_atom_site_type_symbol
_atom_site_fract_x
_atom_site_fract_y
_atom_site_fract_z
Au1 Au 0.89308(3) 0.39308(3) 0.10692(3)
F1 F 0.7418(13) 0.1486(8) 0.1750(11)
O1 O 1.0755(8) 0.5755(8) -0.0755(8)
C1 C 0.7710(9) 0.2710(9) 0.2290(9)
C2 C 1.0110(9) 0.5110(9) -0.0110(9)
F1G F 0.8250(13) 0.2418(8) 0.3514(11)
F1J F 0.6486(13) 0.3250(8) 0.2582(11)
#END
