####################################################################### 
# 
# This file contains crystal structure data downloaded from the 
# Cambridge Structural Database (CSD) hosted by the Cambridge 
# Crystallographic Data Centre (CCDC).
# 
# Full information about CCDC data access policies and citation 
# guidelines are available at http://www.ccdc.cam.ac.uk/access/V1 
# 
# Audit and citation data items may have been added by the CCDC. 
# Please retain this information to preserve the provenance of 
# this file and to allow appropriate attribution of the data. 
# 
#######################################################################

data_[Ni(C10H24N4)]2[TCM]2DMF10H2O
_audit_block_doi                 10.5517/cc7szsr
_database_code_depnum_ccdc_archive 'CCDC 232555'
loop_
_citation_id
_citation_doi
_citation_year
1 10.1021/ic048869w 2005
_audit_update_record             
;
2004-02-27 deposited with the CCDC.	2024-07-10 downloaded from the CCDC.
;

_audit_creation_method           SHELXL-97
_chemical_name_common            ?
_chemical_formula_moiety         '[Ni(C10H24N4)]2[TCM]2DMF10H2O'
_chemical_formula_sum            Ni2C59H106N10O24
_chemical_formula_weight         1456.95

loop_
_atom_type_symbol
_atom_type_description
_atom_type_scat_dispersion_real
_atom_type_scat_dispersion_imag
_atom_type_scat_source
C C 0.0033 0.0016 'International Tables Vol C Tables 4.2.6.8 and 6.1.1.4'
H H 0.0000 0.0000 'International Tables Vol C Tables 4.2.6.8 and 6.1.1.4'
N N 0.0061 0.0033 'International Tables Vol C Tables 4.2.6.8 and 6.1.1.4'
O O 0.0106 0.0060 'International Tables Vol C Tables 4.2.6.8 and 6.1.1.4'
Ni Ni 0.3393 1.1124 'International Tables Vol C Tables 4.2.6.8 and 6.1.1.4'

_symmetry_cell_setting           monoclinic
_symmetry_space_group_name_H-M   P2(1)/c

loop_
_symmetry_equiv_pos_as_xyz
'x, y, z'
'-x, y+1/2, -z+1/2'
'-x, -y, -z'
'x, -y-1/2, z-1/2'

_cell_length_a                   33.5933(17)
_cell_length_b                   24.5773(13)
_cell_length_c                   33.6567(18)
_cell_angle_alpha                90.00
_cell_angle_beta                 97.7110(10)
_cell_angle_gamma                90.00
_cell_volume                     27537(2)
_cell_formula_units_Z            16
_cell_measurement_temperature    258(2)
_cell_measurement_reflns_used    4522
_cell_measurement_theta_min      2.44
_cell_measurement_theta_max      18.08

_exptl_crystal_description       needle
_exptl_crystal_colour            violet
_exptl_crystal_size_max          0.50
_exptl_crystal_size_mid          0.40
_exptl_crystal_size_min          0.10
_exptl_crystal_density_meas      ?
_exptl_crystal_density_diffrn    1.406
_exptl_crystal_density_method    'not measured'
_exptl_crystal_F_000             12448
_exptl_absorpt_coefficient_mu    0.631
_exptl_absorpt_correction_type   SADABS
_exptl_absorpt_correction_T_min  0.7432
_exptl_absorpt_correction_T_max  0.9396
_exptl_absorpt_process_details   ?

_exptl_special_details           
;
?
;

_diffrn_ambient_temperature      258(2)
_diffrn_radiation_wavelength     0.71073
_diffrn_radiation_type           MoK\a
_diffrn_radiation_source         'fine-focus sealed tube'
_diffrn_radiation_monochromator  graphite
_diffrn_measurement_device_type  EnrafNoniusKappCCD
_diffrn_measurement_method       ?
_diffrn_detector_area_resol_mean ?
_diffrn_standards_number         ?
_diffrn_standards_interval_count ?
_diffrn_standards_interval_time  ?
_diffrn_standards_decay_%        none
_diffrn_reflns_number            98207
_diffrn_reflns_av_R_equivalents  0.1387
_diffrn_reflns_av_sigmaI/netI    0.2238
_diffrn_reflns_limit_h_min       -33
_diffrn_reflns_limit_h_max       32
_diffrn_reflns_limit_k_min       -24
_diffrn_reflns_limit_k_max       24
_diffrn_reflns_limit_l_min       -21
_diffrn_reflns_limit_l_max       33
_diffrn_reflns_theta_min         1.03
_diffrn_reflns_theta_max         20.92
_reflns_number_total             28988
_reflns_number_gt                9769
_reflns_threshold_expression     >2sigma(I)

_computing_data_collection       ?
_computing_cell_refinement       ?
_computing_data_reduction        ?
_computing_structure_solution    'SHELXS-97 (Sheldrick, 1990)'
_computing_structure_refinement  'SHELXL-97 (Sheldrick, 1997)'
_computing_molecular_graphics    ?
_computing_publication_material  ?

_refine_special_details          
;
Refinement of F^2^ against ALL reflections. The weighted R-factor wR and
goodness of fit S are based on F^2^, conventional R-factors R are based
on F, with F set to zero for negative F^2^. The threshold expression of
F^2^ > 2sigma(F^2^) is used only for calculating R-factors(gt) etc. and is
not relevant to the choice of reflections for refinement. R-factors based
on F^2^ are statistically about twice as large as those based on F, and R-
factors based on ALL data will be even larger.
;

_refine_ls_structure_factor_coef Fsqd
_refine_ls_matrix_type           fullcycle
_refine_ls_weighting_scheme      calc
_refine_ls_weighting_details     
'calc w=1/[\s^2^(Fo^2^)+(0.0830P)^2^+0.0000P] where P=(Fo^2^+2Fc^2^)/3'
_atom_sites_solution_primary     direct
_atom_sites_solution_secondary   difmap
_atom_sites_solution_hydrogens   geom
_refine_ls_hydrogen_treatment    mixed
_refine_ls_extinction_method     none
_refine_ls_extinction_coef       ?
_refine_ls_number_reflns         28988
_refine_ls_number_parameters     2672
_refine_ls_number_restraints     306
_refine_ls_R_factor_all          0.2010
_refine_ls_R_factor_gt           0.0925
_refine_ls_wR_factor_ref         0.2564
_refine_ls_wR_factor_gt          0.2251
_refine_ls_goodness_of_fit_ref   0.926
_refine_ls_restrained_S_all      0.936
_refine_ls_shift/su_max          0.031
_refine_ls_shift/su_mean         0.000

loop_
_atom_site_label
_atom_site_type_symbol
_atom_site_fract_x
_atom_site_fract_y
_atom_site_fract_z
_atom_site_U_iso_or_equiv
_atom_site_adp_type
_atom_site_occupancy
_atom_site_symmetry_multiplicity
_atom_site_calc_flag
_atom_site_refinement_flags
_atom_site_disorder_assembly
_atom_site_disorder_group
Ni1 Ni 0.98466(5) 1.29509(8) 0.63018(5) 0.068 Uani 1 1 d . . .
Ni2 Ni 0.75591(5) 0.70502(7) 0.40305(5) 0.062 Uani 1 1 d . . .
Ni3 Ni 0.23977(5) 0.78546(8) 0.38701(5) 0.078 Uani 1 1 d . . .
Ni4 Ni 0.47843(5) 0.28618(7) 0.12520(5) 0.063 Uani 1 1 d . . .
Ni5 Ni 0.74007(5) 0.19722(7) 0.88236(5) 0.061 Uani 1 1 d . . .
Ni6 Ni 0.48561(5) 0.77071(8) 0.64323(5) 0.071 Uani 1 1 d . . .
Ni7 Ni -0.00235(4) 0.70571(7) 0.63688(4) 0.052 Uani 1 1 d . . .
Ni8 Ni 0.23602(5) 1.28936(9) 0.87545(5) 0.087 Uani 1 1 d . . .
O1 O 0.94327(19) 1.0711(3) 0.44084(19) 0.045 Uani 1 1 d . . .
O2 O 1.00928(19) 1.0633(3) 0.3612(2) 0.054 Uani 1 1 d . . .
O3 O 1.0175(2) 0.9452(3) 0.3695(2) 0.058 Uani 1 1 d . . .
O4 O 0.9395(2) 0.9387(3) 0.4370(2) 0.050 Uani 1 1 d . . .
O5 O 0.9695(2) 1.2498(3) 0.5794(2) 0.068 Uani 1 1 d . . .
O6 O 0.9043(3) 1.2629(4) 0.5547(2) 0.092 Uani 1 1 d . . .
O7 O 1.0642(2) 1.1589(4) 0.2001(3) 0.113 Uani 1 1 d . . .
O8 O 0.9977(2) 1.1639(4) 0.1861(2) 0.080 Uani 1 1 d . . .
O9 O 1.1877(2) 0.8365(4) 0.3749(2) 0.090 Uani 1 1 d . . .
O10 O 1.1742(3) 0.8494(5) 0.3105(3) 0.124 Uani 1 1 d . . .
O11 O 0.8299(2) 0.7451(3) 0.4817(3) 0.080 Uani 1 1 d . . .
O12 O 0.8031(2) 0.7606(3) 0.4182(2) 0.062 Uani 1 1 d . . .
O13 O 0.5484(2) 0.5111(3) 0.3897(2) 0.057 Uani 1 1 d . . .
O14 O 0.44847(19) 0.4339(3) 0.43038(19) 0.040 Uani 1 1 d . . .
O15 O 0.44060(19) 0.5763(3) 0.42085(18) 0.037 Uani 1 1 d . . .
O16 O 0.4823(2) 0.4950(3) 0.3242(2) 0.062 Uani 1 1 d . . .
O17 O 0.7039(2) 0.6597(3) 0.3885(3) 0.081 Uani 1 1 d . . .
O18 O 0.7181(3) 0.5876(5) 0.3521(4) 0.159 Uani 1 1 d . . .
O19 O 0.5353(3) 0.4024(4) 0.1621(3) 0.114 Uani 1 1 d . . .
O20 O 0.4913(2) 0.3354(4) 0.1758(2) 0.080 Uani 1 1 d . . .
O21 O 0.4051(2) 0.2513(3) 0.5503(2) 0.075 Uani 1 1 d . . .
O22 O 0.4661(2) 0.2758(3) 0.5813(2) 0.066 Uani 1 1 d . . .
O23 O 0.2877(2) 0.7295(4) 0.3982(2) 0.082 Uani 1 1 d . . .
O24 O 0.3143(2) 0.7525(4) 0.4601(2) 0.074 Uani 1 1 d . . .
O25 O 0.1951(2) 1.0713(3) 0.68167(19) 0.047 Uani 1 1 d . . .
O26 O 0.18703(19) 0.9359(3) 0.67663(18) 0.038 Uani 1 1 d . . .
O27 O 0.2654(2) 0.9389(3) 0.6119(2) 0.045 Uani 1 1 d . . .
O28 O 0.2583(2) 1.0589(3) 0.6018(2) 0.058 Uani 1 1 d . . .
O29 O 0.1588(3) 1.2554(4) 0.8020(2) 0.091 Uani 1 1 d . . .
O30 O 0.2237(2) 1.2399(4) 0.8245(2) 0.085 Uani 1 1 d . . .
O31 O 0.0717(2) 0.7423(3) 0.7133(2) 0.064 Uani 1 1 d . . .
O32 O 0.0483(2) 0.7597(3) 0.6503(2) 0.054 Uani 1 1 d . . .
O33 O 0.4305(2) 0.8141(4) 0.6283(2) 0.108 Uani 1 1 d . . .
O34 O 0.4172(3) 0.8169(5) 0.5633(2) 0.133 Uani 1 1 d . . .
O35 O 0.3144(3) 1.1559(5) 0.4443(3) 0.112 Uani 1 1 d . . .
O36 O 0.2476(3) 1.1673(4) 0.4281(2) 0.094 Uani 1 1 d . . .
O37 O 0.6898(2) 0.5716(3) 0.68590(19) 0.047 Uani 1 1 d . . .
O38 O 0.69905(18) 0.4284(3) 0.6936(2) 0.043 Uani 1 1 d . . .
O39 O 0.79760(19) 0.5079(3) 0.6576(2) 0.055 Uani 1 1 d . . .
O40 O 0.7361(2) 0.4974(3) 0.5894(2) 0.071 Uani 1 1 d . . .
O41 O 0.5392(2) 0.7289(3) 0.6582(2) 0.077 Uani 1 1 d . . .
O42 O 0.5623(3) 0.7478(4) 0.7210(3) 0.100 Uani 1 1 d . . .
O43 O 0.6680(3) 0.2310(4) 0.8044(2) 0.091 Uani 1 1 d . . .
O44 O 0.7273(2) 0.2520(3) 0.8340(2) 0.062 Uani 1 1 d . . .
O45 O 0.9436(3) 0.6611(3) 0.6279(3) 0.080 Uani 1 1 d . . .
O46 O 0.9568(3) 0.5844(5) 0.5953(4) 0.166 Uani 1 1 d . . .
O47 O 0.7869(4) 0.4193(5) 0.4246(3) 0.156 Uani 1 1 d . . .
O48 O 0.7517(2) 0.3490(4) 0.4358(2) 0.074 Uani 1 1 d . . .
C1 C 0.9756(3) 1.0047(4) 0.4031(3) 0.028 Uani 1 1 d . . .
C2 C 0.9803(3) 1.0388(4) 0.4413(3) 0.038 Uani 1 1 d . . .
H2A H 0.9841 1.0154 0.4648 0.045 Uiso 1 1 calc R . .
H2B H 1.0034 1.0626 0.4422 0.045 Uiso 1 1 calc R . .
C3 C 0.9725(3) 1.0387(4) 0.3653(3) 0.043 Uani 1 1 d . . .
H3A H 0.9642 1.0157 0.3422 0.051 Uiso 1 1 calc R . .
H3B H 0.9521 1.0665 0.3661 0.051 Uiso 1 1 calc R . .
C4 C 1.0149(3) 0.9711(4) 0.4070(3) 0.036 Uani 1 1 d . . .
H4A H 1.0379 0.9948 0.4140 0.043 Uiso 1 1 calc R . .
H4B H 1.0148 0.9440 0.4279 0.043 Uiso 1 1 calc R . .
C5 C 0.9393(3) 0.9680(4) 0.3996(3) 0.031 Uani 1 1 d . . .
H5A H 0.9150 0.9895 0.3941 0.037 Uiso 1 1 calc R . .
H5B H 0.9401 0.9425 0.3777 0.037 Uiso 1 1 calc R . .
C6 C 0.9442(3) 1.1114(4) 0.4697(3) 0.035 Uani 1 1 d . . .
C7 C 0.9095(3) 1.1415(4) 0.4692(3) 0.039 Uani 1 1 d . . .
H7A H 0.8881 1.1352 0.4492 0.047 Uiso 1 1 calc R . .
C8 C 0.9059(3) 1.1799(5) 0.4969(3) 0.054 Uani 1 1 d . . .
H8A H 0.8817 1.1981 0.4973 0.064 Uiso 1 1 calc R . .
C9 C 0.9384(3) 1.1917(4) 0.5247(3) 0.036 Uani 1 1 d . . .
C10 C 0.9723(3) 1.1628(4) 0.5254(3) 0.043 Uani 1 1 d . . .
H10A H 0.9937 1.1704 0.5451 0.051 Uiso 1 1 calc R . .
C11 C 0.9765(3) 1.1220(4) 0.4981(3) 0.040 Uani 1 1 d . . .
H11A H 1.0003 1.1024 0.4989 0.048 Uiso 1 1 calc R . .
C12 C 0.9381(4) 1.2409(5) 0.5557(4) 0.066 Uani 1 1 d . . .
C13 C 1.0115(3) 1.0877(4) 0.3222(3) 0.042 Uani 1 1 d . . .
C14 C 0.9808(3) 1.1063(5) 0.2973(3) 0.051 Uani 1 1 d . . .
H14A H 0.9550 1.1049 0.3044 0.061 Uiso 1 1 calc R . .
C15 C 0.9865(3) 1.1267(5) 0.2628(3) 0.049 Uani 1 1 d . . .
H15A H 0.9648 1.1429 0.2470 0.059 Uiso 1 1 calc R . .
C16 C 1.0225(3) 1.1256(5) 0.2486(4) 0.056 Uani 1 1 d . . .
C17 C 1.0568(4) 1.1036(6) 0.2751(4) 0.085 Uani 1 1 d . . .
H17A H 1.0823 1.1030 0.2672 0.102 Uiso 1 1 calc R . .
C18 C 1.0506(3) 1.0841(5) 0.3114(3) 0.057 Uani 1 1 d . . .
H18A H 1.0715 1.0688 0.3287 0.068 Uiso 1 1 calc R . .
C19 C 1.0278(4) 1.1513(6) 0.2079(3) 0.077 Uani 1 1 d . . .
C20 C 1.0536(3) 0.9250(5) 0.3661(3) 0.048 Uani 1 1 d . . .
C21 C 1.0626(3) 0.9245(6) 0.3270(4) 0.101 Uani 1 1 d . . .
H21A H 1.0449 0.9383 0.3058 0.121 Uiso 1 1 calc R . .
C22 C 1.0960(5) 0.9044(7) 0.3216(4) 0.133 Uani 1 1 d . . .
H22A H 1.1017 0.9055 0.2953 0.159 Uiso 1 1 calc R . .
C23 C 1.1263(4) 0.8801(6) 0.3500(4) 0.083 Uani 1 1 d . . .
C24 C 1.1140(3) 0.8773(5) 0.3883(4) 0.066 Uani 1 1 d . . .
H24A H 1.1302 0.8596 0.4088 0.079 Uiso 1 1 calc R . .
C25 C 1.0786(3) 0.9002(5) 0.3959(4) 0.059 Uani 1 1 d . . .
H25A H 1.0716 0.8988 0.4217 0.070 Uiso 1 1 calc R . .
C26 C 1.1657(4) 0.8520(6) 0.3455(5) 0.101 Uani 1 1 d . . .
C27 C 0.9105(3) 0.8982(4) 0.4375(3) 0.037 Uani 1 1 d . . .
C28 C 0.9104(3) 0.8705(5) 0.4727(4) 0.062 Uani 1 1 d . . .
H28A H 0.9285 0.8809 0.4947 0.075 Uiso 1 1 calc R . .
C29 C 0.8855(3) 0.8294(4) 0.4767(3) 0.037 Uani 1 1 d . . .
H29A H 0.8865 0.8109 0.5009 0.045 Uiso 1 1 calc R . .
C30 C 0.8577(3) 0.8145(5) 0.4433(4) 0.062 Uani 1 1 d . . .
C31 C 0.8562(3) 0.8451(4) 0.4096(3) 0.047 Uani 1 1 d . . .
H31A H 0.8359 0.8384 0.3885 0.056 Uiso 1 1 calc R . .
C32 C 0.8835(3) 0.8859(4) 0.4054(3) 0.042 Uani 1 1 d . . .
H32A H 0.8833 0.9043 0.3813 0.051 Uiso 1 1 calc R . .
C33 C 0.8284(3) 0.7702(6) 0.4479(5) 0.078 Uani 1 1 d . . .
C34 C 0.4766(3) 0.5060(5) 0.3932(3) 0.047 Uani 1 1 d . . .
C35 C 0.5140(3) 0.5432(4) 0.3948(3) 0.045 Uani 1 1 d . . .
H35A H 0.5096 0.5703 0.3737 0.053 Uiso 1 1 calc R . .
H35B H 0.5184 0.5620 0.4203 0.053 Uiso 1 1 calc R . .
C36 C 0.4743(3) 0.4650(4) 0.3576(3) 0.045 Uani 1 1 d . . .
H36A H 0.4940 0.4363 0.3635 0.053 Uiso 1 1 calc R . .
H36B H 0.4478 0.4487 0.3525 0.053 Uiso 1 1 calc R . .
C37 C 0.4809(3) 0.4703(4) 0.4309(3) 0.038 Uani 1 1 d . . .
H37A H 0.5058 0.4499 0.4327 0.046 Uiso 1 1 calc R . .
H37B H 0.4822 0.4934 0.4545 0.046 Uiso 1 1 calc R . .
C38 C 0.4391(2) 0.5386(4) 0.3878(3) 0.025 Uani 1 1 d . . .
H38A H 0.4368 0.5583 0.3627 0.030 Uiso 1 1 calc R . .
H38B H 0.4159 0.5149 0.3874 0.030 Uiso 1 1 calc R . .
C39 C 0.5831(3) 0.5421(5) 0.3855(3) 0.056 Uani 1 1 d . . .
C40 C 0.5923(4) 0.5924(4) 0.3997(4) 0.066 Uani 1 1 d . . .
H40A H 0.5747 0.6122 0.4131 0.080 Uiso 1 1 calc R . .
C41 C 0.6279(3) 0.6127(5) 0.3936(4) 0.060 Uani 1 1 d . . .
H41A H 0.6339 0.6476 0.4033 0.072 Uiso 1 1 calc R . .
C42 C 0.6554(4) 0.5884(6) 0.3753(4) 0.070 Uani 1 1 d . . .
C43 C 0.6472(4) 0.5354(6) 0.3612(4) 0.089 Uani 1 1 d . . .
H43A H 0.6670 0.5166 0.3500 0.106 Uiso 1 1 calc R . .
C44 C 0.6106(3) 0.5097(6) 0.3634(4) 0.087 Uani 1 1 d . . .
H44A H 0.6040 0.4758 0.3521 0.105 Uiso 1 1 calc R . .
C45 C 0.6952(4) 0.6169(6) 0.3746(4) 0.087 Uani 1 1 d . . .
C46 C 0.4869(4) 0.4622(5) 0.2902(4) 0.070 Uani 1 1 d . . .
C47 C 0.5189(5) 0.4837(8) 0.2670(5) 0.154 Uani 1 1 d . . .
H47A H 0.5352 0.5130 0.2760 0.184 Uiso 1 1 calc R . .
C48 C 0.5224(4) 0.4580(8) 0.2326(5) 0.128 Uani 1 1 d . . .
H48A H 0.5381 0.4736 0.2148 0.154 Uiso 1 1 calc R . .
C49 C 0.5034(4) 0.4083(6) 0.2224(4) 0.076 Uani 1 1 d . . .
C50 C 0.4788(4) 0.3890(5) 0.2461(3) 0.063 Uani 1 1 d . . .
H50A H 0.4678 0.3547 0.2405 0.076 Uiso 1 1 calc R . .
C51 C 0.4685(4) 0.4159(4) 0.2782(3) 0.065 Uani 1 1 d . . .
H51A H 0.4484 0.4021 0.2919 0.077 Uiso 1 1 calc R . .
C52 C 0.5081(5) 0.3767(8) 0.1827(4) 0.110 Uani 1 1 d . . .
C53 C 0.4479(3) 0.3982(4) 0.4620(3) 0.035 Uani 1 1 d . . .
C54 C 0.4138(3) 0.3667(5) 0.4596(3) 0.056 Uani 1 1 d . . .
H54A H 0.3932 0.3712 0.4385 0.067 Uiso 1 1 calc R . .
C55 C 0.4105(3) 0.3281(4) 0.4891(3) 0.046 Uani 1 1 d . . .
H55A H 0.3877 0.3063 0.4873 0.055 Uiso 1 1 calc R . .
C56 C 0.4401(3) 0.3216(4) 0.5205(3) 0.040 Uani 1 1 d . . .
C57 C 0.4742(3) 0.3544(4) 0.5235(3) 0.036 Uani 1 1 d . . .
H57A H 0.4944 0.3514 0.5451 0.043 Uiso 1 1 calc R . .
C58 C 0.4770(3) 0.3912(4) 0.4933(3) 0.041 Uani 1 1 d . . .
H58A H 0.5001 0.4124 0.4945 0.049 Uiso 1 1 calc R . .
C59 C 0.4385(3) 0.2807(5) 0.5547(3) 0.053 Uani 1 1 d . . .
C60 C 0.4087(3) 0.6091(5) 0.4203(3) 0.046 Uani 1 1 d . . .
C61 C 0.4090(3) 0.6427(4) 0.4552(3) 0.048 Uani 1 1 d . . .
H61A H 0.4302 0.6401 0.4759 0.057 Uiso 1 1 calc R . .
C62 C 0.3781(3) 0.6788(5) 0.4584(3) 0.051 Uani 1 1 d . . .
H62A H 0.3778 0.6989 0.4818 0.062 Uiso 1 1 calc R . .
C63 C 0.3471(3) 0.6852(4) 0.4264(3) 0.043 Uani 1 1 d . . .
C64 C 0.3471(3) 0.6518(4) 0.3931(3) 0.041 Uani 1 1 d . . .
H64A H 0.3264 0.6556 0.3720 0.049 Uiso 1 1 calc R . .
C65 C 0.3764(3) 0.6131(4) 0.3896(3) 0.041 Uani 1 1 d . . .
H65A H 0.3745 0.5902 0.3675 0.050 Uiso 1 1 calc R . .
C66 C 0.3136(3) 0.7242(5) 0.4292(3) 0.054 Uani 1 1 d . . .
C67 C 0.2257(3) 1.0003(4) 0.6449(3) 0.028 Uani 1 1 d . . .
C68 C 0.2308(3) 1.0383(4) 0.6823(3) 0.030 Uani 1 1 d . . .
H68A H 0.2348 1.0167 0.7066 0.036 Uiso 1 1 calc R . .
H68B H 0.2541 1.0615 0.6818 0.036 Uiso 1 1 calc R . .
C69 C 0.1881(3) 0.9689(4) 0.6414(3) 0.035 Uani 1 1 d . . .
H69A H 0.1654 0.9935 0.6382 0.042 Uiso 1 1 calc R . .
H69B H 0.1862 0.9457 0.6178 0.042 Uiso 1 1 calc R . .
C70 C 0.2618(3) 0.9650(4) 0.6491(3) 0.034 Uani 1 1 d . . .
H70A H 0.2855 0.9867 0.6575 0.041 Uiso 1 1 calc R . .
H70B H 0.2596 0.9377 0.6696 0.041 Uiso 1 1 calc R . .
C71 C 0.2207(3) 1.0361(4) 0.6050(3) 0.028 Uani 1 1 d . . .
H71A H 0.2120 1.0135 0.5818 0.033 Uiso 1 1 calc R . .
H71B H 0.2010 1.0645 0.6065 0.033 Uiso 1 1 calc R . .
C72 C 0.1953(3) 1.1090(4) 0.7105(3) 0.040 Uani 1 1 d . . .
C73 C 0.2296(3) 1.1169(5) 0.7405(3) 0.045 Uani 1 1 d . . .
H73A H 0.2523 1.0951 0.7415 0.054 Uiso 1 1 calc R . .
C74 C 0.2271(3) 1.1579(4) 0.7676(3) 0.046 Uani 1 1 d . . .
H74A H 0.2499 1.1659 0.7855 0.056 Uiso 1 1 calc R . .
C75 C 0.1939(3) 1.1871(5) 0.7697(3) 0.050 Uani 1 1 d . . .
C76 C 0.1592(3) 1.1786(5) 0.7408(3) 0.057 Uani 1 1 d . . .
H76A H 0.1360 1.1994 0.7411 0.069 Uiso 1 1 calc R . .
C77 C 0.1613(3) 1.1389(4) 0.7129(3) 0.049 Uani 1 1 d . . .
H77A H 0.1386 1.1318 0.6946 0.059 Uiso 1 1 calc R . .
C78 C 0.1906(4) 1.2320(5) 0.8018(3) 0.062 Uani 1 1 d . . .
C79 C 0.1585(3) 0.8962(4) 0.6754(3) 0.036 Uani 1 1 d . . .
C80 C 0.1586(3) 0.8645(5) 0.7096(3) 0.061 Uani 1 1 d . . .
H80A H 0.1778 0.8704 0.7318 0.074 Uiso 1 1 calc R . .
C81 C 0.1288(3) 0.8224(5) 0.7105(3) 0.057 Uani 1 1 d . . .
H81A H 0.1287 0.8012 0.7334 0.068 Uiso 1 1 calc R . .
C82 C 0.1014(3) 0.8136(4) 0.6787(3) 0.035 Uani 1 1 d . . .
C83 C 0.1023(3) 0.8432(4) 0.6458(3) 0.041 Uani 1 1 d . . .
H