
#######################################################################
#
#                 Cambridge Crystallographic Data Centre
#                                CCDC
#
#######################################################################
#
# If this CIF has been generated from an entry in the Cambridge
# Structural Database, then it will include bibliographic, chemical,
# crystal, experimental, refinement or atomic coordinate data resulting
# from the CCDC's data processing and validation procedures.
#
#######################################################################

data_CSD_CIF_FOHDEL
_audit_creation_date 1988-04-27
_audit_creation_method CSD-ConQuest-V1
_database_code_CSD FOHDEL
_database_code_depnum_ccdc_archive 'CCDC 1158529'
_chemical_formula_sum 'C8 Co2 O8'
_chemical_formula_moiety
;
C8 Co2 O8
;
_journal_coeditor_code "IUCr A04222"
_journal_coden_Cambridge 1
_journal_volume 17
_journal_year 1964
_journal_page_first 732
_journal_name_full 'Acta Crystallogr. '
loop_
_publ_author_name
"G.G.Sumner"
"H.P.Klug"
"L.E.Alexander"
_chemical_name_systematic
;
bis(\m~2~-Carbonyl)-bis(tricarbonyl-cobalt)
;
_chemical_name_common
;
Teaching Subset: Fundamental Chemistry, Symmetry
;
_cell_volume   1167.258
_exptl_crystal_colour 'orange'
_exptl_crystal_density_diffrn 1.95
_exptl_special_details
;
Air-sensitive

;
_diffrn_ambient_temperature ?
_diffrn_special_details
;
The study was carried out at room temperature,in the range 283-303K

;
_refine_special_details
;
least-squares refinement

;
#These two values have been output from a single CSD field.
_refine_ls_R_factor_gt 0.096
_refine_ls_wR_factor_gt 0.096
_symmetry_cell_setting monoclinic
_symmetry_space_group_name_H-M 'P 21/m'
_symmetry_Int_Tables_number 11
loop_
_symmetry_equiv_pos_site_id
_symmetry_equiv_pos_as_xyz
1 x,y,z
2 -x,1/2+y,-z
3 -x,-y,-z
4 x,-1/2-y,z
_cell_length_a 6.62(3)
_cell_length_b 15.59(3)
_cell_length_c 11.31(3)
_cell_angle_alpha 90
_cell_angle_beta 90.0(2)
_cell_angle_gamma 90
_cell_formula_units_Z 4
loop_
_atom_type_symbol
_atom_type_radius_bond
C 0.68
Co 1.33
O 0.68
loop_
_atom_site_label
_atom_site_type_symbol
_atom_site_fract_x
_atom_site_fract_y
_atom_site_fract_z
Co1 Co 0.24200 0.16900 0.44500
O1 O 0.099(1) 0.10200 0.216(1)
O2 O 0.645(2) 0.08000 0.437(1)
O3 O 0.034(2) 0.06400 0.623(1)
O4 O 0.454(2) 0.25000 0.643(1)
O5 O -0.154(3) 0.25000 0.418(1)
C1 C 0.154(2) 0.129(1) 0.303(1)
C2 C 0.488(2) 0.118(1) 0.438(1)
C3 C 0.111(2) 0.106(1) 0.551(1)
C4 C 0.351(3) 0.25000 0.551(1)
C5 C 0.024(3) 0.25000 0.429(1)
Co2 Co 0.75200 0.16900 0.91300
O6 O 0.604(2) 0.10600 1.145(1)
O7 O 1.144(2) 0.07600 0.927(1)
O8 O 0.539(2) 0.06300 0.733(1)
O9 O 0.967(2) 0.25000 0.716(1)
O10 O 0.349(3) 0.25000 0.927(1)
C6 C 0.664(2) 0.134(1) 1.056(1)
C7 C 0.995(2) 0.116(1) 0.923(1)
C8 C 0.627(2) 0.104(1) 0.804(1)
C9 C 0.870(3) 0.25000 0.804(1)
C10 C 0.528(3) 0.25000 0.924(1)
Co1C Co 0.24200 0.33100 0.44500
C1C C 0.154(2) 0.371(1) 0.303(1)
C2C C 0.488(2) 0.382(1) 0.438(1)
C3C C 0.111(2) 0.394(1) 0.551(1)
O1C O 0.099(1) 0.39800 0.216(1)
O2C O 0.645(2) 0.42000 0.437(1)
O3C O 0.034(2) 0.43600 0.623(1)
Co2C Co 0.75200 0.33100 0.91300
C6C C 0.664(2) 0.366(1) 1.056(1)
C7C C 0.995(2) 0.384(1) 0.923(1)
C8C C 0.627(2) 0.396(1) 0.804(1)
O6C O 0.604(2) 0.39400 1.145(1)
O7C O 1.144(2) 0.42400 0.927(1)
O8C O 0.539(2) 0.43700 0.733(1)
#END
