
#######################################################################
#
#                 Cambridge Crystallographic Data Centre
#                                CCDC
#
#######################################################################
#
# If this CIF has been generated from an entry in the Cambridge
# Structural Database, then it will include bibliographic, chemical,
# crystal, experimental, refinement or atomic coordinate data resulting
# from the CCDC's data processing and validation procedures.
#
#######################################################################

data_CSD_CIF_FOJBOV01
_audit_creation_date 1988-06-10
_audit_creation_method CSD-ConQuest-V1
_database_code_CSD FOJBOV01
_database_code_depnum_ccdc_archive 'CCDC 1158629'
_chemical_formula_sum 'C5 Fe1 O5'
_chemical_formula_moiety
;
C5 Fe1 O5
;
_journal_coeditor_code "IUCr A04203"
_journal_coden_Cambridge 1
_journal_volume 17
_journal_year 1964
_journal_page_first 663
_journal_name_full 'Acta Crystallogr. '
loop_
_publ_author_name
"J.Donohue"
"A.Caron"
_chemical_name_systematic
;
Pentacarbonyl-iron
;
_chemical_name_common
;
Teaching Subset: Fundamental Chemistry
;
_cell_volume    704.358
_diffrn_ambient_temperature 193
#These two values have been output from a single CSD field.
_refine_ls_R_factor_gt 0.096
_refine_ls_wR_factor_gt 0.096
loop_
_citation_database_id_CSD
_citation_special_details
FOJBOV "is reinterpreted by this entry"
_symmetry_cell_setting monoclinic
_symmetry_space_group_name_H-M 'C 2/c'
_symmetry_Int_Tables_number 15
loop_
_symmetry_equiv_pos_site_id
_symmetry_equiv_pos_as_xyz
1 x,y,z
2 1/2+x,1/2+y,z
3 -x,y,1/2-z
4 1/2-x,1/2+y,1/2-z
5 -x,-y,-z
6 -1/2-x,-1/2-y,-z
7 x,-y,-1/2+z
8 -1/2+x,-1/2-y,-1/2+z
_cell_length_a 11.71(6)
_cell_length_b 6.80(4)
_cell_length_c 9.28(5)
_cell_angle_alpha 90
_cell_angle_beta 107.6(4)
_cell_angle_gamma 90
_cell_formula_units_Z 4
loop_
_atom_type_symbol
_atom_type_radius_bond
C 0.68
Fe 1.34
O 0.68
loop_
_atom_site_label
_atom_site_type_symbol
_atom_site_fract_x
_atom_site_fract_y
_atom_site_fract_z
Fe1 Fe 0.00000 0.1656(6) 0.25000
C1 C 0.0829(17) 0.3055(30) 0.4122(19)
C2 C 0.1299(16) 0.1572(33) 0.1830(18)
C3 C 0.00000 -0.0937(50) 0.25000
O1 O 0.1364(15) 0.3922(27) 0.5165(17)
O2 O 0.2097(15) 0.1578(28) 0.1427(16)
O3 O 0.00000 -0.2557(44) 0.25000
C1B C -0.0829(17) 0.3055(30) 0.0878(19)
C2B C -0.1299(16) 0.1572(33) 0.3170(18)
O1B O -0.1364(15) 0.3922(27) -0.0165(17)
O2B O -0.2097(15) 0.1578(28) 0.3573(16)
#END
