
#######################################################################
#
#                 Cambridge Crystallographic Data Centre
#                                CCDC
#
#######################################################################
#
# If this CIF has been generated from an entry in the Cambridge
# Structural Database, then it will include bibliographic, chemical,
# crystal, experimental, refinement or atomic coordinate data resulting
# from the CCDC's data processing and validation procedures.
#
#######################################################################

data_CSD_CIF_FOJBUB02
_audit_creation_date 1994-02-02
_audit_creation_method CSD-ConQuest-V1
_database_code_CSD FOJBUB02
_database_code_depnum_ccdc_archive 'CCDC 1158633'
_chemical_formula_sum 'C4 Ni1 O4'
_chemical_formula_moiety
;
C4 Ni1 O4
;
_journal_coden_Cambridge 579
_journal_volume 12
_journal_year 1993
_journal_page_first 1481
_journal_name_full 'Organometallics '
loop_
_publ_author_name
"D.Braga"
"F.Grepioni"
"A.G.Orpen"
_chemical_name_systematic
;
Tetracarbonyl-nickel
;
_chemical_name_common
;
Teaching Subset: Fundamental Chemistry, Symmetry
;
_cell_volume   1270.943
_diffrn_ambient_temperature 198
#These two values have been output from a single CSD field.
_refine_ls_R_factor_gt 0.042
_refine_ls_wR_factor_gt 0.042
_symmetry_cell_setting cubic
_symmetry_space_group_name_H-M 'P a 3'
_symmetry_Int_Tables_number 205
loop_
_symmetry_equiv_pos_site_id
_symmetry_equiv_pos_as_xyz
1 x,y,z
2 z,x,y
3 y,z,x
4 -x,1/2+y,1/2-z
5 -z,1/2+x,1/2-y
6 -y,1/2+z,1/2-x
7 1/2-x,-y,1/2+z
8 1/2-z,-x,1/2+y
9 1/2-y,-z,1/2+x
10 1/2+x,1/2-y,-z
11 1/2+z,1/2-x,-y
12 1/2+y,1/2-z,-x
13 -x,-y,-z
14 -z,-x,-y
15 -y,-z,-x
16 x,-1/2-y,-1/2+z
17 z,-1/2-x,-1/2+y
18 y,-1/2-z,-1/2+x
19 -1/2+x,y,-1/2-z
20 -1/2+z,x,-1/2-y
21 -1/2+y,z,-1/2-x
22 -1/2-x,-1/2+y,z
23 -1/2-z,-1/2+x,y
24 -1/2-y,-1/2+z,x
_cell_length_a 10.832(5)
_cell_length_b 10.832(5)
_cell_length_c 10.832(5)
_cell_angle_alpha 90
_cell_angle_beta 90
_cell_angle_gamma 90
_cell_formula_units_Z 8
loop_
_atom_type_symbol
_atom_type_radius_bond
C 0.68
Ni 1.50
O 0.68
loop_
_atom_site_label
_atom_site_type_symbol
_atom_site_fract_x
_atom_site_fract_y
_atom_site_fract_z
Ni1 Ni 0.12184(2) 0.12184(2) 0.12184(2)
C1 C 0.21878(15) 0.21878(15) 0.21878(15)
O1 O 0.27872(12) 0.27872(12) 0.27872(12)
C2 C 0.0231(2) 0.02757(15) 0.2190(2)
O2 O -0.03870(14) -0.03102(13) 0.27895(15)
C2A C 0.2190(2) 0.02310(15) 0.02757(20)
C2B C 0.02757(20) 0.21900(15) 0.0231(2)
O2A O 0.27895(14) -0.03870(13) -0.03102(15)
O2B O -0.03102(14) 0.27895(13) -0.03870(15)
#END
