
#######################################################################
#
#                 Cambridge Crystallographic Data Centre
#                                CCDC
#
#######################################################################
#
# If this CIF has been generated from an entry in the Cambridge
# Structural Database, then it will include bibliographic, chemical,
# crystal, experimental, refinement or atomic coordinate data resulting
# from the CCDC's data processing and validation procedures.
#
#######################################################################

data_CSD_CIF_FUBYIK
_audit_creation_date 1988-06-10
_audit_creation_method CSD-ConQuest-V1
_database_code_CSD FUBYIK
_database_code_depnum_ccdc_archive 'CCDC 1160402'
_chemical_formula_sum 'C6 Mo1 O6'
_chemical_formula_moiety
;
C6 Mo1 O6
;
_journal_coden_Cambridge 643
_journal_volume 166
_journal_year 1984
_journal_page_first 277
_journal_name_full 'Z.Krist.Cryst.Mater. '
loop_
_publ_author_name
"T.C.W.Mak"
_chemical_name_systematic
;
Hexacarbonyl-molybdenum
;
_chemical_name_common
;
Teaching Subset: Fundamental Chemistry, Symmetry
;
_cell_volume    890.133
_exptl_crystal_density_diffrn 1.97
_diffrn_ambient_temperature ?
_diffrn_special_details
;
The study was carried out at room temperature,in the range 283-303K

;
#These two values have been output from a single CSD field.
_refine_ls_R_factor_gt 0.025
_refine_ls_wR_factor_gt 0.025
_symmetry_cell_setting orthorhombic
_symmetry_space_group_name_H-M 'P n m a'
_symmetry_Int_Tables_number 62
loop_
_symmetry_equiv_pos_site_id
_symmetry_equiv_pos_as_xyz
1 x,y,z
2 1/2-x,-y,1/2+z
3 1/2+x,1/2-y,1/2-z
4 -x,1/2+y,-z
5 -x,-y,-z
6 -1/2+x,y,-1/2-z
7 -1/2-x,-1/2+y,-1/2+z
8 x,-1/2-y,z
_cell_length_a 12.019(2)
_cell_length_b 11.415(2)
_cell_length_c 6.488(1)
_cell_angle_alpha 90
_cell_angle_beta 90
_cell_angle_gamma 90
_cell_formula_units_Z 4
loop_
_atom_type_symbol
_atom_type_radius_bond
C 0.68
Mo 1.47
O 0.68
loop_
_atom_site_label
_atom_site_type_symbol
_atom_site_fract_x
_atom_site_fract_y
_atom_site_fract_z
Mo1 Mo 0.12705(2) 0.25000 0.06413(4)
C1 C 0.2214(3) 0.25000 0.3302(6)
C2 C 0.0324(3) 0.25000 -0.2009(7)
C3 C 0.0257(2) 0.3768(2) 0.1880(5)
C4 C 0.2266(2) 0.3779(2) -0.0602(4)
O1 O 0.2730(4) 0.25000 0.4727(6)
O2 O -0.0177(3) 0.25000 -0.3464(5)
O3 O -0.0305(2) 0.4465(2) 0.2546(4)
O4 O 0.2808(2) 0.4491(3) -0.1303(5)
C3G C 0.0257(2) 0.1232(2) 0.1880(5)
C4G C 0.2266(2) 0.1221(2) -0.0602(4)
O3G O -0.0305(2) 0.0535(2) 0.2546(4)
O4G O 0.2808(2) 0.0509(3) -0.1303(5)
#END
