
#######################################################################
#
#                 Cambridge Crystallographic Data Centre
#                                CCDC
#
#######################################################################
#
# If this CIF has been generated from an entry in the Cambridge
# Structural Database, then it will include bibliographic, chemical,
# crystal, experimental, refinement or atomic coordinate data resulting
# from the CCDC's data processing and validation procedures.
#
#######################################################################

data_CSD_CIF_FULLER
_audit_creation_date 1992-05-28
_audit_creation_method CSD-ConQuest-V1
_database_code_CSD FULLER
_database_code_depnum_ccdc_archive 'CCDC 1161055'
_chemical_formula_sum 'C60 Cs6'
_chemical_formula_moiety
;
C60 6-,6(Cs1 1+)
;
_journal_coden_Cambridge 6
_journal_volume 351
_journal_year 1991
_journal_page_first 462
_journal_name_full 'Nature (London) '
loop_
_publ_author_name
"O.Zhou"
"J.E.Fischer"
"N.Coustel"
"S.Kycia"
"Q.Zhu"
"A.R.McGhie"
"W.J.Romanow"
"J.P.McCauley Junior"
"A.B.Smith III"
"D.E.Cox"
_chemical_name_systematic
;
Hexa-cesium C60fulleride
;
_chemical_name_common
;
Hexa-cesium fullerite; Teaching Subset: Fundamental Chemistry
;
_cell_volume   1638.858
_exptl_special_details
;
powder data

;
_diffrn_ambient_temperature ?
_diffrn_special_details
;
The study was carried out at room temperature,in the range 283-303K

;
#These two values have been output from a single CSD field.
_refine_ls_R_factor_gt 0.043
_refine_ls_wR_factor_gt 0.043
_symmetry_cell_setting cubic
_symmetry_space_group_name_H-M 'I m 3'
_symmetry_Int_Tables_number 204
loop_
_symmetry_equiv_pos_site_id
_symmetry_equiv_pos_as_xyz
1 x,y,z
2 1/2+x,1/2+y,1/2+z
3 z,x,y
4 y,z,x
5 1/2+z,1/2+x,1/2+y
6 1/2+y,1/2+z,1/2+x
7 -x,y,-z
8 1/2-x,1/2+y,1/2-z
9 -z,x,-y
10 -y,z,-x
11 1/2-z,1/2+x,1/2-y
12 1/2-y,1/2+z,1/2-x
13 -x,-y,z
14 1/2-x,1/2-y,1/2+z
15 -z,-x,y
16 -y,-z,x
17 1/2-z,1/2-x,1/2+y
18 1/2-y,1/2-z,1/2+x
19 x,-y,-z
20 1/2+x,1/2-y,1/2-z
21 z,-x,-y
22 y,-z,-x
23 1/2+z,1/2-x,1/2-y
24 1/2+y,1/2-z,1/2-x
25 -x,-y,-z
26 -1/2-x,-1/2-y,-1/2-z
27 -z,-x,-y
28 -y,-z,-x
29 -1/2-z,-1/2-x,-1/2-y
30 -1/2-y,-1/2-z,-1/2-x
31 x,-y,z
32 -1/2+x,-1/2-y,-1/2+z
33 z,-x,y
34 y,-z,x
35 -1/2+z,-1/2-x,-1/2+y
36 -1/2+y,-1/2-z,-1/2+x
37 x,y,-z
38 -1/2+x,-1/2+y,-1/2-z
39 z,x,-y
40 y,z,-x
41 -1/2+z,-1/2+x,-1/2-y
42 -1/2+y,-1/2+z,-1/2-x
43 -x,y,z
44 -1/2-x,-1/2+y,-1/2+z
45 -z,x,y
46 -y,z,x
47 -1/2-z,-1/2+x,-1/2+y
48 -1/2-y,-1/2+z,-1/2+x
_cell_length_a 11.79
_cell_length_b 11.79
_cell_length_c 11.79
_cell_angle_alpha 90
_cell_angle_beta 90
_cell_angle_gamma 90
_cell_formula_units_Z 2
loop_
_atom_type_symbol
_atom_type_radius_bond
C 0.68
Cs 1.67
loop_
_atom_site_label
_atom_site_type_symbol
_atom_site_fract_x
_atom_site_fract_y
_atom_site_fract_z
C1 C 0.0611(1) 0.00000 0.2968(2)
C2 C 0.1222(1) 0.0989(1) 0.2590(1)
C3 C 0.0611(1) 0.1978(1) 0.2212(1)
Cs1 Cs 0.00000 0.50000 0.27810
C1PA C -0.0611(1) 0.00000 0.2968(2)
C2PA C -0.1222(1) 0.0989(1) 0.2590(1)
C3PA C -0.0611(1) 0.1978(1) 0.2212(1)
C2SA C -0.0989(1) 0.2590(1) 0.1222(1)
C1SA C 0.0000(1) 0.29680 0.0611(2)
C1I C 0.0000(1) 0.29680 -0.0611(2)
C2I C -0.0989(1) 0.2590(1) -0.1222(1)
C3I C -0.1978(1) 0.2212(1) -0.0611(1)
C2H C -0.2590(1) 0.1222(1) -0.0989(1)
C1H C -0.2968(1) 0.06110 0.0000(2)
C1Z C -0.2968(1) -0.06110 0.0000(2)
C2Z C -0.2590(1) -0.1222(1) -0.0989(1)
C3Z C -0.2212(1) -0.0611(1) -0.1978(1)
C2X C -0.1222(1) -0.0989(1) -0.2590(1)
C1X C -0.0611(1) 0.00000 -0.2968(2)
C1R C 0.0611(1) 0.00000 -0.2968(2)
C2R C 0.1222(1) -0.0989(1) -0.2590(1)
C3R C 0.0611(1) -0.1978(1) -0.2212(1)
C2U C 0.0989(1) -0.2590(1) -0.1222(1)
C1U C 0.0000(1) -0.29680 -0.0611(2)
C1GA C 0.0000(1) -0.29680 0.0611(2)
C2GA C 0.0989(1) -0.2590(1) 0.1222(1)
C3GA C 0.1978(1) -0.2212(1) 0.0611(1)
C2FA C 0.2590(1) -0.1222(1) 0.0989(1)
C1FA C 0.2968(1) -0.06110 0.0000(2)
C1B C 0.2968(1) 0.06110 0.0000(2)
C2B C 0.2590(1) 0.1222(1) 0.0989(1)
C3B C 0.2212(1) 0.0611(1) 0.1978(1)
C2DA C 0.1222(1) -0.0989(1) 0.2590(1)
C3DA C 0.0611(1) -0.1978(1) 0.2212(1)
C3L C -0.0611(1) -0.1978(1) 0.2212(1)
C2L C -0.1222(1) -0.0989(1) 0.2590(1)
C3N C -0.2212(1) -0.0611(1) 0.1978(1)
C2N C -0.2590(1) -0.1222(1) 0.0989(1)
C3O C -0.1978(1) -0.2212(1) 0.0611(1)
C2O C -0.0989(1) -0.2590(1) 0.1222(1)
C3AA C -0.1978(1) -0.2212(1) -0.0611(1)
C2AA C -0.0989(1) -0.2590(1) -0.1222(1)
C3X C -0.0611(1) -0.1978(1) -0.2212(1)
C3RA C -0.2212(1) 0.0611(1) 0.1978(1)
C2RA C -0.2590(1) 0.1222(1) 0.0989(1)
C3SA C -0.1978(1) 0.2212(1) 0.0611(1)
C3FA C 0.2212(1) -0.0611(1) 0.1978(1)
C2C C 0.0989(1) 0.2590(1) 0.1222(1)
C3C C 0.1978(1) 0.2212(1) 0.0611(1)
C3MA C 0.1978(1) 0.2212(1) -0.0611(1)
C2LA C 0.2590(1) 0.1222(1) -0.0989(1)
C3LA C 0.2212(1) 0.0611(1) -0.1978(1)
C2JA C 0.1222(1) 0.0989(1) -0.2590(1)
C3JA C 0.0611(1) 0.1978(1) -0.2212(1)
C2MA C 0.0989(1) 0.2590(1) -0.1222(1)
C3F C -0.0611(1) 0.1978(1) -0.2212(1)
C3T C 0.2212(1) -0.0611(1) -0.1978(1)
C2T C 0.2590(1) -0.1222(1) -0.0989(1)
C3U C 0.1978(1) -0.2212(1) -0.0611(1)
C2F C -0.1222(1) 0.0989(1) -0.2590(1)
C3H C -0.2212(1) 0.0611(1) -0.1978(1)
#END
