
#######################################################################
#
#                 Cambridge Crystallographic Data Centre
#                                CCDC
#
#######################################################################
#
# If this CIF has been generated from an entry in the Cambridge
# Structural Database, then it will include bibliographic, chemical,
# crystal, experimental, refinement or atomic coordinate data resulting
# from the CCDC's data processing and validation procedures.
#
#######################################################################

data_CSD_CIF_FUYVUQ03
_audit_creation_date 2007-08-13
_audit_creation_method CSD-ConQuest-V1
_database_code_CSD FUYVUQ03
_database_code_depnum_ccdc_archive 'CCDC 622375'
_chemical_formula_sum 'H6 B1 N1'
_chemical_formula_moiety
;
H6 B1 N1
;
_journal_coden_Cambridge 154
_journal_volume 60
_journal_year 2007
_journal_page_first 149
_journal_name_full 'Aust.J.Chem. '
loop_
_publ_author_name
"M.E.Bowden"
"G.J.Gainsford"
"W.T.Robinson"
_chemical_name_systematic
;
ammine(trihydrido)boron
;
_chemical_name_common
;
ammonia borane; Teaching Subset: Symmetry
;
_cell_volume    130.970
_exptl_crystal_colour 'colorless'
_exptl_crystal_density_diffrn 0.783
_exptl_special_details
;
orthorhombic polymorph

;
_exptl_crystal_description 'Needle'
_diffrn_ambient_temperature 90
#These two values have been output from a single CSD field.
_refine_ls_R_factor_gt 0.0601
_refine_ls_wR_factor_gt 0.0601
_symmetry_cell_setting orthorhombic
_symmetry_space_group_name_H-M 'P m n 21'
_symmetry_Int_Tables_number 31
loop_
_symmetry_equiv_pos_site_id
_symmetry_equiv_pos_as_xyz
1 x,y,z
2 1/2-x,-y,1/2+z
3 1/2+x,-y,1/2+z
4 -x,y,z
_cell_length_a 5.541(3)
_cell_length_b 4.705(3)
_cell_length_c 5.0237(19)
_cell_angle_alpha 90
_cell_angle_beta 90
_cell_angle_gamma 90
_cell_formula_units_Z 2
loop_
_atom_type_symbol
_atom_type_radius_bond
H 0.23
B 0.83
N 0.68
loop_
_atom_site_label
_atom_site_type_symbol
_atom_site_fract_x
_atom_site_fract_y
_atom_site_fract_z
N1 N 0.00000 0.2459(10) 0.3121(11)
B1 B 0.00000 0.1690(11) 0.0020(11)
H1 H 0.00000 0.414(14) 0.333(15)
H2 H 0.141(7) 0.167(7) 0.395(7)
H3 H 0.00000 -0.070(9) -0.006(14)
H4 H 0.155(10) 0.275(7) -0.082(9)
H2C H -0.141(7) 0.167(7) 0.395(7)
H4C H -0.155(10) 0.275(7) -0.082(9)
#END
