
#######################################################################
#
#                 Cambridge Crystallographic Data Centre
#                                CCDC
#
#######################################################################
#
# If this CIF has been generated from an entry in the Cambridge
# Structural Database, then it will include bibliographic, chemical,
# crystal, experimental, refinement or atomic coordinate data resulting
# from the CCDC's data processing and validation procedures.
#
#######################################################################

data_CSD_CIF_FUYYIH02
_audit_creation_date 1988-10-10
_audit_creation_method CSD-ConQuest-V1
_database_code_CSD FUYYIH02
_database_code_depnum_ccdc_archive 'CCDC 1162161'
_chemical_formula_sum 'H14 B10'
_chemical_formula_moiety
;
H14 B10
;
_journal_coeditor_code "IUCr A08363"
_journal_coden_Cambridge 107
_journal_volume 27
_journal_year 1971
_journal_page_first 2003
_journal_name_full 'Acta Crystallogr.,Sect.B:Struct.Crystallogr.Cryst.Chem. '
loop_
_publ_author_name
"R.Brill"
"H.Dietrich"
"H.Dierks"
_chemical_name_systematic
;
Decaborane(14)
;
_chemical_name_common
;
Teaching Subset: Fundamental Chemistry, Symmetry
;
_cell_volume   1638.539
_diffrn_ambient_temperature 113.15
_diffrn_radiation_probe 'combined X-ray and neutron diffraction. radiation'
#These two values have been output from a single CSD field.
_refine_ls_R_factor_gt 0.042
_refine_ls_wR_factor_gt 0.042
_symmetry_cell_setting monoclinic
_symmetry_space_group_name_H-M 'C 1 1 2/a'
_symmetry_Int_Tables_number 13
loop_
_symmetry_equiv_pos_site_id
_symmetry_equiv_pos_as_xyz
1 x,y,z
2 1/2+x,1/2+y,z
3 1/2-x,-y,z
4 -x,1/2-y,z
5 -x,-y,-z
6 -1/2-x,-1/2-y,-z
7 -1/2+x,y,-z
8 x,-1/2+y,-z
_cell_length_a 14.32
_cell_length_b 20.36
_cell_length_c 5.62
_cell_angle_alpha 90
_cell_angle_beta 90
_cell_angle_gamma 90.06
_cell_formula_units_Z 8
loop_
_atom_type_symbol
_atom_type_radius_bond
H 0.23
B 0.83
loop_
_atom_site_label
_atom_site_type_symbol
_atom_site_fract_x
_atom_site_fract_y
_atom_site_fract_z
B1 B 0.0334(1) 0.3315(1) -0.0001(3)
B2 B 0.0993(1) 0.2739(1) 0.1726(3)
B3 B 0.1187(1) 0.2784(1) -0.1309(3)
B4 B -0.0980(1) 0.2999(1) 0.0006(3)
B5 B -0.0202(1) 0.2913(1) 0.2388(3)
H1 H 0.0443(3) 0.3892(1) -0.0066(7)
H2 H 0.1593(2) 0.2883(1) 0.3085(5)
H3 H 0.1858(3) 0.2945(2) -0.2370(7)
H4 H -0.1575(2) 0.3406(2) -0.0053(7)
H5 H -0.0365(2) 0.3252(8) 0.4064(4)
H6 H 0.0444(3) 0.3108(2) -0.2223(6)
H7 H 0.0897(3) 0.2208(2) -0.2217(6)
B6 B 0.2843(1) -0.5814(1) 0.4955(3)
B7 B 0.3496(1) -0.5232(1) 0.3233(3)
B8 B 0.3690(1) -0.5277(1) 0.6273(3)
B9 B 0.1528(1) -0.5505(1) 0.4959(3)
B10 B 0.2305(1) -0.5413(1) 0.2568(3)
H8 H 0.2959(2) -0.6389(1) 0.4994(6)
H9 H 0.4095(2) -0.5369(1) 0.1867(5)
H10 H 0.4362(2) -0.5435(2) 0.7355(6)
H11 H 0.0938(3) -0.5917(2) 0.5016(7)
H12 H 0.2142(2) -0.5755(1) 0.0896(4)
H13 H 0.2960(3) -0.5615(2) 0.7172(6)
H14 H 0.3380(3) -0.4706(2) 0.7184(6)
B4C B 0.0980(1) 0.2001(1) 0.0006(3)
B5C B 0.0202(1) 0.2087(1) 0.2388(3)
B2C B -0.0993(1) 0.2261(1) 0.1726(3)
B3C B -0.1187(1) 0.2216(1) -0.1309(3)
H7C H -0.0897(3) 0.2792(2) -0.2217(6)
B1C B -0.0334(1) 0.1685(1) -0.0001(3)
H4C H 0.1575(2) 0.1594(2) -0.0053(7)
H5C H 0.0365(2) 0.1748(8) 0.4064(4)
H2C H -0.1593(2) 0.2117(1) 0.3085(5)
H3C H -0.1858(3) 0.2055(2) -0.2370(7)
H6C H -0.0444(3) 0.1892(2) -0.2223(6)
H1C H -0.0443(3) 0.1108(1) -0.0066(7)
B9B B 0.3472(1) -0.4495(1) 0.4959(3)
B10B B 0.2695(1) -0.4587(1) 0.2568(3)
B7B B 0.1504(1) -0.4768(1) 0.3233(3)
B8B B 0.1310(1) -0.4723(1) 0.6273(3)
H14B H 0.1620(3) -0.5294(2) 0.7184(6)
B6B B 0.2157(1) -0.4186(1) 0.4955(3)
H11B H 0.4062(3) -0.4083(2) 0.5016(7)
H12B H 0.2858(2) -0.4245(1) 0.0896(4)
H9B H 0.0905(2) -0.4631(1) 0.1867(5)
H10B H 0.0638(2) -0.4565(2) 0.7355(6)
H13B H 0.2040(3) -0.4385(2) 0.7172(6)
H8B H 0.2041(2) -0.3611(1) 0.4994(6)
#END
