
#######################################################################
#
#                 Cambridge Crystallographic Data Centre
#                                CCDC
#
#######################################################################
#
# If this CIF has been generated from an entry in the Cambridge
# Structural Database, then it will include bibliographic, chemical,
# crystal, experimental, refinement or atomic coordinate data resulting
# from the CCDC's data processing and validation procedures.
#
#######################################################################

data_CSD_CIF_GABJAU
_audit_creation_date 1988-10-10
_audit_creation_method CSD-ConQuest-V1
_database_code_CSD GABJAU
_database_code_depnum_ccdc_archive 'CCDC 1162312'
_chemical_formula_sum 'H20 B14'
_chemical_formula_moiety
;
H20 B14
;
_journal_coden_Cambridge 9
_journal_volume 20
_journal_year 1981
_journal_page_first 741
_journal_name_full 'Inorg.Chem. '
loop_
_publ_author_name
"J.C.Huffman"
"D.C.Moody"
"R.Schaeffer"
_chemical_name_systematic
;
Tetradecaborane(20)
;
_chemical_name_common
;
Teaching Subset: Fundamental Chemistry
;
_cell_volume   1173.034
_exptl_crystal_colour 'yellow'
_exptl_crystal_density_diffrn 0.971
_diffrn_ambient_temperature 109.15
#These two values have been output from a single CSD field.
_refine_ls_R_factor_gt 0.021
_refine_ls_wR_factor_gt 0.021
_symmetry_cell_setting orthorhombic
_symmetry_space_group_name_H-M 'P 21 21 21'
_symmetry_Int_Tables_number 19
loop_
_symmetry_equiv_pos_site_id
_symmetry_equiv_pos_as_xyz
1 x,y,z
2 1/2+x,1/2-y,-z
3 -x,1/2+y,1/2-z
4 1/2-x,-y,1/2+z
_cell_length_a 13.119(4)
_cell_length_b 9.976(3)
_cell_length_c 8.963(3)
_cell_angle_alpha 90
_cell_angle_beta 90
_cell_angle_gamma 90
_cell_formula_units_Z 4
loop_
_atom_type_symbol
_atom_type_radius_bond
H 0.23
B 0.83
loop_
_atom_site_label
_atom_site_type_symbol
_atom_site_fract_x
_atom_site_fract_y
_atom_site_fract_z
B1 B 0.3790(3) 0.4116(3) 0.2311(3)
B2 B 0.4448(2) 0.4092(3) 0.0596(4)
B3 B 0.4418(2) 0.2118(4) -0.1852(4)
B4 B 0.3698(2) 0.0633(3) -0.2055(4)
B5 B 0.3663(3) 0.2520(3) 0.3026(4)
B6 B 0.4777(3) 0.2882(3) 0.1923(4)
B7 B 0.4999(2) 0.2648(3) -0.0193(4)
B8 B 0.4656(2) 0.0813(3) -0.0598(4)
B9 B 0.3468(3) -0.0074(3) -0.0321(4)
B10 B 0.2506(3) 0.0819(4) -0.1263(4)
B11 B 0.3091(2) 0.2284(6) -0.2076(4)
B12 B 0.3919(2) 0.3628(3) -0.1127(3)
B13 B 0.3109(2) 0.4216(3) 0.0543(4)
B14 B 0.2627(3) 0.3302(3) 0.2141(4)
H1 H 0.3872(14) 0.4945(18) 0.3052(20)
H2 H 0.4888(15) 0.4969(19) 0.0502(25)
H3 H 0.4866(15) 0.2244(21) -0.2831(21)
H4 H 0.3804(15) 0.0024(19) -0.3091(22)
H5 H 0.3702(16) 0.2153(18) 0.4201(21)
H6 H 0.5508(16) 0.2843(21) 0.2519(20)
H7 H 0.5806(12) 0.2844(18) -0.0413(20)
H8 H 0.5355(17) 0.0119(19) -0.0555(26)
H9 H 0.3393(15) -0.1123(20) -0.0012(21)
H10 H 0.1753(13) 0.0377(18) -0.1583(20)
H11 H 0.2678(15) 0.2706(20) -0.3089(22)
H12 H 0.4038(14) 0.4441(20) -0.1946(22)
H13 H 0.2626(18) 0.5113(20) 0.0260(22)
H14 H 0.1890(16) 0.3507(20) 0.2658(21)
H15 H 0.2465(17) 0.2079(24) -0.1064(25)
H16 H 0.2648(20) 0.0546(23) 0.0141(25)
H17 H 0.4093(15) 0.0599(22) 0.0506(26)
H18 H 0.4296(17) 0.1849(24) 0.2227(26)
H19 H 0.2884(19) 0.2054(25) 0.2385(25)
H20 H 0.2573(17) 0.3211(22) 0.0749(26)
#END
