
#######################################################################
#
#                 Cambridge Crystallographic Data Centre
#                                CCDC
#
#######################################################################
#
# If this CIF has been generated from an entry in the Cambridge
# Structural Database, then it will include bibliographic, chemical,
# crystal, experimental, refinement or atomic coordinate data resulting
# from the CCDC's data processing and validation procedures.
#
#######################################################################

data_CSD_CIF_GABJEY10
_audit_creation_date 1989-05-23
_audit_creation_method CSD-ConQuest-V1
_database_code_CSD GABJEY10
_database_code_depnum_ccdc_archive 'CCDC 1162314'
_chemical_formula_sum 'H16 B12'
_chemical_formula_moiety
;
H16 B12
;
_journal_coden_Cambridge 4
_journal_volume 107
_journal_year 1985
_journal_page_first 3558
_journal_name_full 'J.Am.Chem.Soc. '
loop_
_publ_author_name
"C.T.Brewer"
"R.G.Swisher"
"E.Sinn"
"R.N.Grimes"
_chemical_name_systematic
;
Dodecaborane(16)
;
_chemical_name_common
;
Teaching Subset: Fundamental Chemistry
;
_cell_volume   1053.584
_exptl_crystal_density_diffrn 0.919
_diffrn_ambient_temperature ?
_diffrn_special_details
;
The study was carried out at room temperature,in the range 283-303K

;
#These two values have been output from a single CSD field.
_refine_ls_R_factor_gt 0.044
_refine_ls_wR_factor_gt 0.044
_symmetry_cell_setting orthorhombic
_symmetry_space_group_name_H-M 'P n a 21'
_symmetry_Int_Tables_number 33
loop_
_symmetry_equiv_pos_site_id
_symmetry_equiv_pos_as_xyz
1 x,y,z
2 1/2-x,1/2+y,1/2+z
3 1/2+x,1/2-y,z
4 -x,-y,1/2+z
_cell_length_a 10.686(3)
_cell_length_b 8.686(4)
_cell_length_c 11.351(4)
_cell_angle_alpha 90
_cell_angle_beta 90
_cell_angle_gamma 90
_cell_formula_units_Z 4
loop_
_atom_type_symbol
_atom_type_radius_bond
H 0.23
B 0.83
loop_
_atom_site_label
_atom_site_type_symbol
_atom_site_fract_x
_atom_site_fract_y
_atom_site_fract_z
B1 B 0.1021(3) 0.3797(4) 0.6688(3)
B2 B 0.0122(3) 0.2179(4) 0.6313(3)
B3 B 0.1221(3) 0.2020(4) 0.7399(3)
B4 B 0.2547(3) 0.3039(4) 0.6939(4)
B5 B 0.2173(3) 0.3807(5) 0.5569(4)
B6 B 0.0709(4) 0.3301(5) 0.5174(3)
B7 B 0.0069(3) 0.0679(3) 0.7282(3)
B8 B 0.0506(3) 0.1395(4) 0.8732(3)
B9 B -0.0795(3) 0.2472(4) 0.9284(4)
B10 B -0.1917(3) 0.2630(5) 0.8189(4)
B11 B -0.1369(3) 0.1638(4) 0.6894(3)
B12 B -0.1117(3) 0.0923(4) 0.8388(3)
H1 H 0.064(2) 0.490(3) 0.713(2)
H2 H 0.338(2) 0.336(3) 0.756(2)
H3 H 0.266(3) 0.473(3) 0.519(3)
H4 H 0.014(3) 0.380(3) 0.441(3)
H5 H 0.024(2) -0.054(3) 0.702(2)
H6 H 0.098(2) 0.075(3) 0.940(3)
H7 H -0.103(3) 0.264(3) 1.019(3)
H8 H -0.283(3) 0.286(3) 0.835(3)
H9 H -0.212(2) 0.112(3) 0.632(2)
H10 H -0.160(2) -0.002(3) 0.870(2)
H11 H 0.049(3) 0.180(3) 0.535(3)
H12 H 0.225(3) 0.163(3) 0.713(3)
H13 H 0.274(3) 0.295(4) 0.592(3)
H14 H 0.031(3) 0.272(3) 0.907(3)
H15 H -0.123(3) 0.359(3) 0.872(3)
H16 H -0.163(3) 0.295(3) 0.720(3)
#END
