
#######################################################################
#
#                 Cambridge Crystallographic Data Centre
#                                CCDC
#
#######################################################################
#
# If this CIF has been generated from an entry in the Cambridge
# Structural Database, then it will include bibliographic, chemical,
# crystal, experimental, refinement or atomic coordinate data resulting
# from the CCDC's data processing and validation procedures.
#
#######################################################################

data_CSD_CIF_GACWOW
_audit_creation_date 1988-09-21
_audit_creation_method CSD-ConQuest-V1
_database_code_CSD GACWOW
_database_code_depnum_ccdc_archive 'CCDC 1162495'
_chemical_formula_sum 'H9 B5'
_chemical_formula_moiety
;
H9 B5
;
_journal_coeditor_code "IUCr A00603"
_journal_coden_Cambridge 1
_journal_volume 5
_journal_year 1952
_journal_page_first 260
_journal_name_full 'Acta Crystallogr. '
loop_
_publ_author_name
"W.J.Dulmage"
"W.N.Lipscomb"
_chemical_name_systematic
;
Pentaborane(9)
;
_chemical_name_common
;
Teaching Subset: Fundamental Chemistry, Symmetry
;
_chemical_melting_point 225.15
_cell_volume    275.809
_exptl_crystal_density_diffrn 0.761
_diffrn_ambient_temperature 158.15
#These two values have been output from a single CSD field.
_refine_ls_R_factor_gt 0.13
_refine_ls_wR_factor_gt 0.13
_symmetry_cell_setting tetragonal
_symmetry_space_group_name_H-M 'I 4 m m'
_symmetry_Int_Tables_number 107
loop_
_symmetry_equiv_pos_site_id
_symmetry_equiv_pos_as_xyz
1 x,y,z
2 1/2+x,1/2+y,1/2+z
3 -y,x,z
4 1/2-y,1/2+x,1/2+z
5 -x,-y,z
6 1/2-x,1/2-y,1/2+z
7 y,-x,z
8 1/2+y,1/2-x,1/2+z
9 -x,y,z
10 1/2-x,1/2+y,1/2+z
11 y,x,z
12 1/2+y,1/2+x,1/2+z
13 x,-y,z
14 1/2+x,1/2-y,1/2+z
15 -y,-x,z
16 1/2-y,1/2-x,1/2+z
_cell_length_a 7.16(2)
_cell_length_b 7.16(2)
_cell_length_c 5.38(2)
_cell_angle_alpha 90
_cell_angle_beta 90
_cell_angle_gamma 90
_cell_formula_units_Z 2
loop_
_atom_type_symbol
_atom_type_radius_bond
H 0.23
B 0.83
loop_
_atom_site_label
_atom_site_type_symbol
_atom_site_fract_x
_atom_site_fract_y
_atom_site_fract_z
B1 B 0.00000 0.00000 0.202(4)
B2 B 0.175(2) 0.00000 0.00000
H1 H 0.00000 0.00000 0.427(9)
H2 H 0.328(6) 0.00000 0.092(9)
H3 H 0.136(6) 0.136(6) -0.165(9)
B2B B 0.000(2) 0.17500 0.00000
B2D B -0.175(2) 0.00000 0.00000
B2F B 0.000(2) -0.17500 0.00000
H3F H 0.136(6) -0.136(6) -0.165(9)
H2B H 0.000(6) 0.32800 0.092(9)
H3B H -0.136(6) 0.136(6) -0.165(9)
H2D H -0.328(6) 0.00000 0.092(9)
H3D H -0.136(6) -0.136(6) -0.165(9)
H2F H 0.000(6) -0.32800 0.092(9)
#END
