
#######################################################################
#
#                 Cambridge Crystallographic Data Centre
#                                CCDC
#
#######################################################################
#
# If this CIF has been generated from an entry in the Cambridge
# Structural Database, then it will include bibliographic, chemical,
# crystal, experimental, refinement or atomic coordinate data resulting
# from the CCDC's data processing and validation procedures.
#
#######################################################################

data_CSD_CIF_GAZLEY01
_audit_creation_date 2005-11-21
_audit_creation_method CSD-ConQuest-V1
_database_code_CSD GAZLEY01
_database_code_depnum_ccdc_archive 'CCDC 280418; CCDC 414581'
_chemical_formula_sum 'H12 B12 Br1 K3'
_chemical_formula_moiety
;
3(K1 1+),H12 B12 2-,Br1 1-
;
_journal_coden_Cambridge 644
_journal_volume 60
_journal_year 2005
_journal_page_first 627
_journal_name_full 'Z.Naturforsch.,B:Chem.Sci. '
loop_
_publ_author_name
"I.Tiritiris"
"J.Weidlein"
"T.Schleid"
_chemical_name_systematic
;
Tri-potassium dodecahydro-closo-dodecaborate bromide
;
_chemical_name_common
;
Teaching Subset: Fundamental Chemistry
;
_cell_volume    972.475
_exptl_crystal_colour 'colorless'
_exptl_crystal_density_diffrn 1.737
_exptl_special_details
;
isostructural with the Rb-Cl, Cs-Cl, NH4-Br, Rb-Br and Cs-Br analogues

;
_exptl_crystal_description 'polyhedral'
_diffrn_ambient_temperature 293
#These two values have been output from a single CSD field.
_refine_ls_R_factor_gt 0.0176
_refine_ls_wR_factor_gt 0.0176
_symmetry_cell_setting rhombohedral
_symmetry_space_group_name_H-M 'R -3 m'
_symmetry_Int_Tables_number 166
loop_
_symmetry_equiv_pos_site_id
_symmetry_equiv_pos_as_xyz
1 x,y,z
2 -y,x-y,z
3 y,x,-z
4 -x+y,-x,z
5 2/3+x,1/3+y,1/3+z
6 2/3-y,1/3+x-y,1/3+z
7 2/3+y,1/3+x,1/3-z
8 2/3-x+y,1/3-x,1/3+z
9 1/3+x,2/3+y,2/3+z
10 1/3+y,2/3+x,2/3-z
11 -x,-x+y,-z
12 x-y,-y,-z
13 1/3-y,2/3+x-y,2/3+z
14 1/3-x+y,2/3-x,2/3+z
15 1/3-x,2/3-x+y,2/3-z
16 1/3+x-y,2/3-y,2/3-z
17 2/3-x,1/3-x+y,1/3-z
18 2/3+x-y,1/3-y,1/3-z
19 -x,-y,-z
20 y,-x+y,-z
21 -y,-x,z
22 x-y,x,-z
23 -2/3-x,-1/3-y,-1/3-z
24 -2/3+y,-1/3-x+y,-1/3-z
25 -2/3-y,-1/3-x,-1/3+z
26 -2/3+x-y,-1/3+x,-1/3-z
27 -1/3-x,-2/3-y,-2/3-z
28 -1/3-y,-2/3-x,-2/3+z
29 x,x-y,z
30 -x+y,y,z
31 -1/3+y,-2/3-x+y,-2/3-z
32 -1/3+x-y,-2/3+x,-2/3-z
33 -1/3+x,-2/3+x-y,-2/3+z
34 -1/3-x+y,-2/3+y,-2/3+z
35 -2/3+x,-1/3+x-y,-1/3+z
36 -2/3-x+y,-1/3+y,-1/3+z
_cell_length_a 10.0234(7)
_cell_length_b 10.0234(7)
_cell_length_c 11.1768(9)
_cell_angle_alpha 90
_cell_angle_beta 90
_cell_angle_gamma 120
_cell_formula_units_Z 3
loop_
_atom_type_symbol
_atom_type_radius_bond
H 0.23
B 0.83
Br 1.21
K 1.33
loop_
_atom_site_label
_atom_site_type_symbol
_atom_site_fract_x
_atom_site_fract_y
_atom_site_fract_z
K1 K 0.50000 0.00000 0.00000
Br1 Br 0.00000 0.00000 0.50000
B1 B 0.05881(11) 0.94119(11) 0.87959(16)
B2 B 0.09557(13) 0.90443(13) 1.02878(19)
H1 H 0.0978(16) 0.9022(16) 0.811(2)
H2 H 0.1298(16) 0.8702(16) 1.068(2)
B1A B 0.05881(11) 1.11762(11) 0.87959(16)
B1C B -0.11762(11) 0.94119(11) 0.87959(16)
B1U B 0.11762(11) 1.05881(11) 1.12041(16)
B1B B -0.05881(11) 1.05881(11) 1.12041(16)
B1S B -0.05881(11) 0.88238(11) 1.12041(16)
B2U B 0.19114(13) 1.09557(13) 0.97122(19)
B2A B 0.09557(13) 1.19114(13) 1.02878(19)
B2B B -0.09557(13) 1.09557(13) 0.97122(19)
B2C B -0.19114(13) 0.90443(13) 1.02878(19)
B2S B -0.09557(13) 0.80886(13) 0.97122(19)
H1S H -0.0978(16) 0.8044(16) 1.189(2)
H1C H -0.1956(16) 0.9022(16) 0.811(2)
H1B H -0.0978(16) 1.0978(16) 1.189(2)
H1A H 0.0978(16) 1.1956(16) 0.811(2)
H1U H 0.1956(16) 1.0978(16) 1.189(2)
H2U H 0.2596(16) 1.1298(16) 0.932(2)
H2A H 0.1298(16) 1.2596(16) 1.068(2)
H2B H -0.1298(16) 1.1298(16) 0.932(2)
H2C H -0.2596(16) 0.8702(16) 1.068(2)
H2S H -0.1298(16) 0.7404(16) 0.932(2)
#END
