
#######################################################################
#
#                 Cambridge Crystallographic Data Centre
#                                CCDC
#
#######################################################################
#
# If this CIF has been generated from an entry in the Cambridge
# Structural Database, then it will include bibliographic, chemical,
# crystal, experimental, refinement or atomic coordinate data resulting
# from the CCDC's data processing and validation procedures.
#
#######################################################################

data_CSD_CIF_GAZLEY
_audit_creation_date 1989-02-16
_audit_creation_method CSD-ConQuest-V1
_database_code_CSD GAZLEY
_database_code_depnum_ccdc_archive 'CCDC 1164766'
_chemical_formula_sum 'H12 B12 Br1 K3'
_chemical_formula_moiety
;
H12 B12 2-,3(K1 1+),Br1 1-
;
_journal_coden_Cambridge 233
_journal_volume 22
_journal_year 1977
_journal_page_first 3200
_journal_name_full 'Zh.Neorg.Khim.(Russ.)(Russ.J.Inorg.Chem.) '
loop_
_publ_author_name
"K.A.Solntsev"
"N.T.Kuznetsov"
"V.K.Trunov"
"O.G.Karpinskii"
"G.S.Klimchuk"
"S.I.Uspenskaya"
"Yu.V.Oboznenko"
_chemical_name_systematic
;
Tri-potassium dodecahydro-closo-dodecaborate bromide
;
_chemical_name_common
;
Teaching Subset: Fundamental Chemistry
;
_cell_volume    322.600
_exptl_crystal_density_diffrn 1.76
_exptl_special_details
;
Isostructural with the iodide, rubidium chloride, bromide, iodide, cesium 
chloride, bromide and iodide
hexagonal cell a=10.024(11), c=11.224(21)
;
_diffrn_ambient_temperature ?
_diffrn_special_details
;
The study was carried out at room temperature,in the range 283-303K

;
#These two values have been output from a single CSD field.
_refine_ls_R_factor_gt 0.081
_refine_ls_wR_factor_gt 0.081
_symmetry_cell_setting rhombohedral
_symmetry_space_group_name_H-M 'R -3 m'
_symmetry_Int_Tables_number 166
loop_
_symmetry_equiv_pos_site_id
_symmetry_equiv_pos_as_xyz
1 x,y,z
2 z,x,y
3 y,z,x
4 -y,-x,-z
5 -x,-z,-y
6 -z,-y,-x
7 -x,-y,-z
8 -z,-x,-y
9 -y,-z,-x
10 y,x,z
11 x,z,y
12 z,y,x
_cell_length_a 6.871(2)
_cell_length_b 6.871(2)
_cell_length_c 6.871(2)
_cell_angle_alpha 93.40(1)
_cell_angle_beta 93.40(1)
_cell_angle_gamma 93.40(1)
_cell_formula_units_Z 1
loop_
_atom_type_symbol
_atom_type_radius_bond
H 0.23
B 0.83
Br 1.21
K 1.33
loop_
_atom_site_label
_atom_site_type_symbol
_atom_site_fract_x
_atom_site_fract_y
_atom_site_fract_z
Br1 Br 0.00000 0.00000 0.00000
K1 K 0.50000 0.00000 0.00000
B1 B 0.437(1) 0.437(1) 0.258(1)
B2 B 0.665(1) 0.370(1) 0.370(1)
H1 H 0.38900 0.38900 0.09900
H2 H 0.77000 0.27800 0.27800
B1A B 0.258(1) 0.437(1) 0.437(1)
B1B B 0.437(1) 0.258(1) 0.437(1)
B2A B 0.370(1) 0.665(1) 0.370(1)
B2H B 0.630(1) 0.630(1) 0.335(1)
B1G B 0.742(1) 0.563(1) 0.563(1)
B2G B 0.630(1) 0.335(1) 0.630(1)
B2F B 0.335(1) 0.630(1) 0.630(1)
B2B B 0.370(1) 0.370(1) 0.665(1)
H1A H 0.09900 0.38900 0.38900
H1B H 0.38900 0.09900 0.38900
B1H B 0.563(1) 0.742(1) 0.563(1)
H2A H 0.27800 0.77000 0.27800
H2H H 0.72200 0.72200 0.23000
B1F B 0.563(1) 0.563(1) 0.742(1)
H1G H 0.90100 0.61100 0.61100
H2G H 0.72200 0.23000 0.72200
H2F H 0.23000 0.72200 0.72200
H2B H 0.27800 0.27800 0.77000
H1H H 0.61100 0.90100 0.61100
H1F H 0.61100 0.61100 0.90100
#END
