
#######################################################################
#
#                 Cambridge Crystallographic Data Centre
#                                CCDC
#
#######################################################################
#
# If this CIF has been generated from an entry in the Cambridge
# Structural Database, then it will include bibliographic, chemical,
# crystal, experimental, refinement or atomic coordinate data resulting
# from the CCDC's data processing and validation procedures.
#
#######################################################################

data_CSD_CIF_GUWWIF
_audit_creation_date 2010-10-04
_audit_creation_method CSD-ConQuest-V1
_database_code_CSD GUWWIF
_database_code_depnum_ccdc_archive 'CCDC 741331'
_chemical_formula_sum 'C4 Ca1 O4'
_chemical_formula_moiety
;
(C4 Ca1 O4)n
;
_journal_coden_Cambridge 29
_journal_volume 636
_journal_year 2010
_journal_page_first 400
_journal_name_full 'Z.Anorg.Allg.Chem. '
loop_
_publ_author_name
"I.Stein"
"U.Ruschewitz"
_chemical_name_systematic
;
catena-((\m~6~-acetylene-1,2-dicarboxylato)-calcium)
;
_chemical_name_common
;
Teaching Subset: MOFs
;
_cell_volume    482.556
_exptl_special_details
;
powder data

;
_diffrn_ambient_temperature 295
#These two values have been output from a single CSD field.
_refine_ls_R_factor_gt 0.0196
_refine_ls_wR_factor_gt 0.0196
_symmetry_cell_setting tetragonal
_symmetry_space_group_name_H-M 'I 41/a m d'
_symmetry_Int_Tables_number 141
loop_
_symmetry_equiv_pos_site_id
_symmetry_equiv_pos_as_xyz
1 x,y,z
2 1/4-y,3/4+x,1/4+z
3 1/2-x,-y,1/2+z
4 1/4+y,1/4-x,3/4+z
5 x,-y,-z
6 3/4+y,1/4+x,3/4-z
7 1/2-x,y,1/2-z
8 3/4-y,3/4-x,1/4-z
9 1/2+x,1/2+y,1/2+z
10 3/4-y,1/4+x,3/4+z
11 -x,1/2-y,z
12 3/4+y,3/4-x,1/4+z
13 1/2+x,1/2-y,1/2-z
14 1/4+y,3/4+x,1/4-z
15 -x,1/2+y,-z
16 1/4-y,1/4-x,3/4-z
17 -x,-y,-z
18 -1/4+y,-3/4-x,-1/4-z
19 -1/2+x,y,-1/2-z
20 -1/4-y,-1/4+x,-3/4-z
21 -x,y,z
22 -3/4-y,-1/4-x,-3/4+z
23 -1/2+x,-y,-1/2+z
24 -3/4+y,-3/4+x,-1/4+z
25 -1/2-x,-1/2-y,-1/2-z
26 -3/4+y,-1/4-x,-3/4-z
27 x,-1/2+y,-z
28 -3/4-y,-3/4+x,-1/4-z
29 -1/2-x,-1/2+y,-1/2+z
30 -1/4-y,-3/4-x,-1/4+z
31 x,-1/2-y,z
32 -1/4+y,-1/4+x,-3/4+z
_cell_length_a 6.87781(26)
_cell_length_b 6.87781(26)
_cell_length_c 10.2011(4)
_cell_angle_alpha 90
_cell_angle_beta 90
_cell_angle_gamma 90
_cell_formula_units_Z 4
loop_
_atom_type_symbol
_atom_type_radius_bond
C 0.68
Ca 1.76
O 0.68
loop_
_atom_site_label
_atom_site_type_symbol
_atom_site_fract_x
_atom_site_fract_y
_atom_site_fract_z
Ca1 Ca 0.00000 0.25000 0.37500
O1 O 0.00000 0.41346(12) 0.61870(15)
C1 C 0.00000 0.25000 0.816198(14)
C2 C 0.00000 0.25000 0.672109(30)
Ca1A Ca 0.00000 0.75000 0.62500
Ca1A* Ca 0.00000 -0.25000 0.62500
Ca1* Ca 0.00000 0.25000 1.37500
Ca1C Ca 0.50000 0.25000 1.12500
Ca1C* Ca -0.50000 0.25000 1.12500
O1J O 0.00000 0.08654(12) 0.61870(15)
O1E O 0.16346 0.25000(12) 1.13130(15)
O1O O -0.16346 0.25000(12) 1.13130(15)
O1C O -0.33654 0.25000(12) 0.36870(15)
O1D O 0.00000 0.58654(12) 0.38130(15)
O1E* O 0.16346 0.25000(12) 0.13130(15)
O1I O 0.33654 0.25000(12) 0.36870(15)
O1N O 0.00000 -0.08654(12) 0.38130(15)
O1O* O -0.16346 0.25000(12) 0.13130(15)
C1E C 0.00000 0.25000 0.933802(14)
C2E C 0.00000 0.25000 1.077891(30)
#END
