
#######################################################################
#
#                 Cambridge Crystallographic Data Centre
#                                CCDC
#
#######################################################################
#
# If this CIF has been generated from an entry in the Cambridge
# Structural Database, then it will include bibliographic, chemical,
# crystal, experimental, refinement or atomic coordinate data resulting
# from the CCDC's data processing and validation procedures.
#
#######################################################################

data_CSD_CIF_IDUQED
_audit_creation_date 2002-05-01
_audit_creation_method CSD-ConQuest-V1
_database_code_CSD IDUQED
_database_code_depnum_ccdc_archive 'CCDC 169453'
_chemical_formula_sum 'C12 F10 Xe1'
_chemical_formula_moiety
;
C12 F10 Xe1
;
_journal_coden_Cambridge 179
_journal_volume 41
_journal_year 2002
_journal_page_first 448
_journal_name_full 'Angew.Chem.,Int.Ed. '
loop_
_publ_author_name
"H.Bock"
"D.Hinz-Hubner"
"U.Ruschewitz"
"D.Naumann"
_chemical_name_systematic
;
bis(Pentafluorophenyl)-xenon
;
_chemical_name_common
;
Teaching Subset: Fundamental Chemistry
;
_cell_volume   1263.177
_exptl_crystal_density_diffrn 2.447
_exptl_special_details
;
powder data
thermally unstable, may vigorously explode on contact

;
_diffrn_ambient_temperature 50
#These two values have been output from a single CSD field.
_refine_ls_R_factor_gt 0.1393
_refine_ls_wR_factor_gt 0.1393
_symmetry_cell_setting monoclinic
_symmetry_space_group_name_H-M 'P 21/n'
_symmetry_Int_Tables_number 14
loop_
_symmetry_equiv_pos_site_id
_symmetry_equiv_pos_as_xyz
1 x,y,z
2 1/2-x,1/2+y,1/2-z
3 -x,-y,-z
4 -1/2+x,-1/2-y,-1/2+z
_cell_length_a 13.6346(29)
_cell_length_b 8.2478(18)
_cell_length_c 11.5110(25)
_cell_angle_alpha 90
_cell_angle_beta 102.6248(26)
_cell_angle_gamma 90
_cell_formula_units_Z 4
loop_
_atom_type_symbol
_atom_type_radius_bond
C 0.68
F 0.64
Xe 1.62
loop_
_atom_site_label
_atom_site_type_symbol
_atom_site_fract_x
_atom_site_fract_y
_atom_site_fract_z
Xe1 Xe 0.41772(27) 0.3749(4) 0.6618(4)
F1 F 0.6279(7) 0.4884(9) 0.8616(7)
F2 F 0.6681(7) 0.6950(9) 1.0519(7)
F3 F 0.5186(7) 0.8863(9) 1.1018(7)
F4 F 0.3291(7) 0.8708(9) 0.9616(7)
F5 F 0.2889(7) 0.6640(9) 0.7713(7)
F6 F 0.39349(30) -0.0233(12) 0.6679(7)
F7 F 0.36869(30) -0.2668(12) 0.5029(7)
F8 F 0.34159(30) -0.1940(12) 0.2663(7)
F9 F 0.33929(30) 0.1224(12) 0.1947(7)
F10 F 0.36409(30) 0.3660(12) 0.3597(7)
C1 C 0.5540(7) 0.5829(9) 0.8863(7)
C2 C 0.5743(7) 0.6874(9) 0.9825(7)
C3 C 0.4988(7) 0.7840(9) 1.0078(7)
C4 C 0.4030(7) 0.7762(9) 0.9369(7)
C5 C 0.3827(7) 0.6717(9) 0.8408(7)
C6 C 0.4582(7) 0.5751(9) 0.8154(7)
C7 C 0.3801(3) 0.0125(12) 0.5509(7)
C8 C 0.36759(30) -0.1104(12) 0.4675(7)
C9 C 0.35389(30) -0.0736(12) 0.3479(7)
C10 C 0.35269(30) 0.0864(12) 0.3117(7)
C11 C 0.3653(3) 0.2093(12) 0.3951(7)
C12 C 0.3790(3) 0.1724(12) 0.5148(7)
#END
