####################################################################### 
# 
# This file contains crystal structure data downloaded from the 
# Cambridge Structural Database (CSD) hosted by the Cambridge 
# Crystallographic Data Centre (CCDC).
# 
# Full information about CCDC data access policies and citation 
# guidelines are available at http://www.ccdc.cam.ac.uk/access/V1 
# 
# Audit and citation data items may have been added by the CCDC. 
# Please retain this information to preserve the provenance of 
# this file and to allow appropriate attribution of the data. 
# 
#######################################################################

data_squeeze
_audit_block_doi                 10.5517/ccwlqqw
_database_code_depnum_ccdc_archive 'CCDC 822359'
loop_
_citation_id
_citation_doi
_citation_year
1 10.1002/anie.201102783 2011
_audit_update_record             
;
2011-04-19 deposited with the CCDC.	2024-07-10 downloaded from the CCDC.
;
#TrackingRef 'web_deposit_cif_file_1_DrAlexanderSteiner_1303209779.cif'


_audit_creation_method           SHELXL-97
_chemical_name_systematic        
;
?
;
_chemical_name_common            ?
_chemical_melting_point          ?
_chemical_formula_moiety         ?
_chemical_formula_sum            'C10 N5 Na'
_chemical_formula_weight         213.14

loop_
_atom_type_symbol
_atom_type_description
_atom_type_scat_dispersion_real
_atom_type_scat_dispersion_imag
_atom_type_scat_source
C C 0.0033 0.0016 'International Tables Vol C Tables 4.2.6.8 and 6.1.1.4'
H H 0.0000 0.0000 'International Tables Vol C Tables 4.2.6.8 and 6.1.1.4'
N N 0.0061 0.0033 'International Tables Vol C Tables 4.2.6.8 and 6.1.1.4'
O O 0.0106 0.0060 'International Tables Vol C Tables 4.2.6.8 and 6.1.1.4'
Na Na 0.0362 0.0249 'International Tables Vol C Tables 4.2.6.8 and 6.1.1.4'

_symmetry_cell_setting           cubic
_symmetry_space_group_name_H-M   Pm-3n

loop_
_symmetry_equiv_pos_as_xyz
'x, y, z'
'-x, -y, z'
'-x, y, -z'
'x, -y, -z'
'z, x, y'
'z, -x, -y'
'-z, -x, y'
'-z, x, -y'
'y, z, x'
'-y, z, -x'
'y, -z, -x'
'-y, -z, x'
'y+1/2, x+1/2, -z+1/2'
'-y+1/2, -x+1/2, -z+1/2'
'y+1/2, -x+1/2, z+1/2'
'-y+1/2, x+1/2, z+1/2'
'x+1/2, z+1/2, -y+1/2'
'-x+1/2, z+1/2, y+1/2'
'-x+1/2, -z+1/2, -y+1/2'
'x+1/2, -z+1/2, y+1/2'
'z+1/2, y+1/2, -x+1/2'
'z+1/2, -y+1/2, x+1/2'
'-z+1/2, y+1/2, x+1/2'
'-z+1/2, -y+1/2, -x+1/2'
'-x, -y, -z'
'x, y, -z'
'x, -y, z'
'-x, y, z'
'-z, -x, -y'
'-z, x, y'
'z, x, -y'
'z, -x, y'
'-y, -z, -x'
'y, -z, x'
'-y, z, x'
'y, z, -x'
'-y-1/2, -x-1/2, z-1/2'
'y-1/2, x-1/2, z-1/2'
'-y-1/2, x-1/2, -z-1/2'
'y-1/2, -x-1/2, -z-1/2'
'-x-1/2, -z-1/2, y-1/2'
'x-1/2, -z-1/2, -y-1/2'
'x-1/2, z-1/2, y-1/2'
'-x-1/2, z-1/2, -y-1/2'
'-z-1/2, -y-1/2, x-1/2'
'-z-1/2, y-1/2, -x-1/2'
'z-1/2, -y-1/2, -x-1/2'
'z-1/2, y-1/2, x-1/2'

_cell_length_a                   31.251(8)
_cell_length_b                   31.251(8)
_cell_length_c                   31.251(8)
_cell_angle_alpha                90.00
_cell_angle_beta                 90.00
_cell_angle_gamma                90.00
_cell_volume                     30522(14)
_cell_formula_units_Z            48
_cell_measurement_temperature    100(2)

_exptl_crystal_description       cube
_exptl_crystal_colour            colourless
_exptl_crystal_size_max          0.3
_exptl_crystal_size_mid          0.3
_exptl_crystal_size_min          0.3
_exptl_crystal_density_diffrn    0.557
_exptl_crystal_density_method    'not measured'
_exptl_crystal_F_000             5088
_exptl_absorpt_coefficient_mu    0.052
_exptl_absorpt_correction_type   multi-scan
_exptl_absorpt_correction_T_min  0.6620
_exptl_absorpt_correction_T_max  0.7456

_exptl_special_details           
;
?
;

_diffrn_ambient_temperature      100(2)
_diffrn_radiation_wavelength     0.71073
_diffrn_radiation_type           MoK\a
_diffrn_radiation_source         'fine-focus sealed tube'
_diffrn_radiation_monochromator  graphite
_diffrn_measurement_device_type  'Bruker Smart Apex'
_diffrn_measurement_method       \w
_diffrn_reflns_number            56262
_diffrn_reflns_av_R_equivalents  0.0825
_diffrn_reflns_av_sigmaI/netI    0.0389
_diffrn_reflns_limit_h_min       -24
_diffrn_reflns_limit_h_max       24
_diffrn_reflns_limit_k_min       -33
_diffrn_reflns_limit_k_max       33
_diffrn_reflns_limit_l_min       -3
_diffrn_reflns_limit_l_max       33
_diffrn_reflns_theta_min         2.61
_diffrn_reflns_theta_max         22.48
_reflns_number_total             3553
_reflns_number_gt                2631
_reflns_threshold_expression     >2sigma(I)

_computing_structure_solution    'SHELXS-97 (Sheldrick, 1990)'
_computing_structure_refinement  'SHELXL-97 (Sheldrick, 1997)'

_refine_special_details          
;
Refinement of F^2^ against ALL reflections. The weighted R-factor wR and
goodness of fit S are based on F^2^, conventional R-factors R are based
on F, with F set to zero for negative F^2^. The threshold expression of
F^2^ > 2sigma(F^2^) is used only for calculating R-factors(gt) etc. and is
not relevant to the choice of reflections for refinement. R-factors based
on F^2^ are statistically about twice as large as those based on F, and R-
factors based on ALL data will be even larger.
;

_refine_ls_structure_factor_coef Fsqd
_refine_ls_matrix_type           full
_refine_ls_weighting_scheme      calc
_refine_ls_weighting_details     
'calc w=1/[\s^2^(Fo^2^)+(0.1300P)^2^+0.0000P] where P=(Fo^2^+2Fc^2^)/3'
_atom_sites_solution_primary     direct
_atom_sites_solution_secondary   difmap
_refine_ls_extinction_method     none
_refine_ls_number_reflns         3553
_refine_ls_number_parameters     162
_refine_ls_number_restraints     0
_refine_ls_R_factor_all          0.0886
_refine_ls_R_factor_gt           0.0639
_refine_ls_wR_factor_ref         0.1925
_refine_ls_wR_factor_gt          0.1796
_refine_ls_goodness_of_fit_ref   1.051
_refine_ls_restrained_S_all      1.051
_refine_ls_shift/su_max          0.000
_refine_ls_shift/su_mean         0.000

loop_
_atom_site_label
_atom_site_type_symbol
_atom_site_fract_x
_atom_site_fract_y
_atom_site_fract_z
_atom_site_U_iso_or_equiv
_atom_site_adp_type
_atom_site_occupancy
_atom_site_symmetry_multiplicity
_atom_site_calc_flag
_atom_site_refinement_flags
_atom_site_disorder_assembly
_atom_site_disorder_group
Na1 Na 0.18566(2) 0.18566(2) 0.18566(2) 0.0229(4) Uani 1 3 d S . .
Na2 Na 0.12034(4) 0.0000 0.30459(4) 0.0338(4) Uani 1 2 d S . .
Na3 Na 0.23054(16) 0.0000 0.5000 0.0620(18) Uani 0.50 4 d SP . .
Na4 Na 0.0000 0.0000 0.0000 0.0726(17) Uani 1 24 d S . .
N1 N 0.11375(8) 0.16538(8) 0.20141(9) 0.0625(8) Uani 1 1 d . . .
N2 N 0.07048(7) 0.05407(8) 0.27854(9) 0.0572(7) Uani 1 1 d . . .
N3 N 0.0000 0.23442(12) 0.15745(11) 0.0531(9) Uani 1 2 d S . .
N4 N 0.20223(8) 0.17003(8) 0.25901(8) 0.0569(7) Uani 1 1 d . . .
N5 N 0.16875(9) 0.05379(8) 0.33200(7) 0.0592(8) Uani 1 1 d . . .
N6 N 0.2500 0.05192(9) 0.44808(9) 0.1069(19) Uani 1 2 d S . .
C1 C 0.07935(9) 0.15585(9) 0.20867(9) 0.0489(8) Uani 1 1 d . . .
C2 C 0.04906(8) 0.07860(9) 0.26206(9) 0.0446(7) Uani 1 1 d . . .
C3 C 0.0000 0.20374(13) 0.17740(13) 0.0422(10) Uani 1 2 d S . .
C4 C 0.21623(9) 0.15981(8) 0.29108(9) 0.0427(7) Uani 1 1 d . . .
C5 C 0.19382(10) 0.07863(9) 0.34184(8) 0.0497(8) Uani 1 1 d . . .
C6 C 0.2500 0.07761(10) 0.42239(10) 0.0736(16) Uani 1 2 d S . .
C7 C 0.03621(8) 0.14405(8) 0.21727(9) 0.0423(7) Uani 1 1 d . . .
C8 C 0.02226(7) 0.10892(8) 0.24099(9) 0.0420(7) Uani 1 1 d . . .
C9 C 0.0000 0.16595(11) 0.20212(13) 0.0415(10) Uani 1 2 d S . .
C10 C 0.23423(8) 0.14720(8) 0.33056(8) 0.0392(7) Uani 1 1 d . . .
C11 C 0.22437(9) 0.11007(8) 0.35359(8) 0.0426(7) Uani 1 1 d . . .
C12 C 0.2500 0.10988(7) 0.39012(7) 0.0492(11) Uani 1 2 d S . .
O1 O 0.0845(3) 0.0000 0.3767(3) 0.128(3) Uani 0.50 2 d SP . .

loop_
_atom_site_aniso_label
_atom_site_aniso_U_11
_atom_site_aniso_U_22
_atom_site_aniso_U_33
_atom_site_aniso_U_23
_atom_site_aniso_U_13
_atom_site_aniso_U_12
Na1 0.0229(4) 0.0229(4) 0.0229(4) -0.0001(3) -0.0001(3) -0.0001(3)
Na2 0.0319(8) 0.0230(7) 0.0464(9) 0.000 -0.0068(6) 0.000
Na3 0.142(5) 0.020(2) 0.024(2) 0.000 0.000 0.000
Na4 0.0726(17) 0.0726(17) 0.0726(17) 0.000 0.000 0.000
N1 0.0225(14) 0.0753(19) 0.090(2) 0.0231(15) 0.0025(13) -0.0059(12)
N2 0.0391(14) 0.0431(14) 0.0893(19) 0.0152(14) -0.0058(13) 0.0083(12)
N3 0.042(2) 0.053(2) 0.065(2) 0.0169(19) 0.000 0.000
N4 0.0688(17) 0.0634(17) 0.0385(15) 0.0119(13) -0.0179(13) -0.0098(13)
N5 0.0816(19) 0.0455(14) 0.0505(16) 0.0055(12) -0.0203(13) -0.0249(14)
N6 0.210(6) 0.0551(16) 0.0551(16) 0.029(2) -0.048(2) -0.048(2)
C1 0.0295(17) 0.0491(17) 0.068(2) 0.0146(14) -0.0021(14) 0.0017(13)
C2 0.0278(15) 0.0367(16) 0.069(2) 0.0065(15) 0.0038(14) -0.0005(13)
C3 0.024(2) 0.041(2) 0.061(3) 0.010(2) 0.000 0.000
C4 0.0569(18) 0.0373(16) 0.0340(17) 0.0073(13) -0.0091(14) -0.0132(13)
C5 0.076(2) 0.0386(16) 0.0345(16) 0.0096(13) -0.0151(15) -0.0166(16)
C6 0.122(4) 0.0493(17) 0.0493(17) 0.014(2) -0.039(2) -0.039(2)
C7 0.0199(13) 0.0414(16) 0.0655(19) 0.0088(14) 0.0034(12) 0.0008(12)
C8 0.0268(12) 0.0314(15) 0.0679(19) 0.0123(14) -0.0020(12) 0.0039(11)
C9 0.027(2) 0.038(2) 0.060(3) 0.0104(19) 0.000 0.000
C10 0.0557(17) 0.0328(14) 0.0291(14) 0.0077(11) -0.0141(12) -0.0126(12)
C11 0.0616(18) 0.0334(15) 0.0328(15) 0.0053(12) -0.0162(13) -0.0193(13)
C12 0.088(3) 0.0297(13) 0.0297(13) 0.0153(17) -0.0197(16) -0.0197(16)
O1 0.148(8) 0.118(6) 0.117(6) 0.000 0.111(6) 0.000

_geom_special_details            
;
All esds (except the esd in the dihedral angle between two l.s. planes)
are estimated using the full covariance matrix. The cell esds are taken
into account individually in the estimation of esds in distances, angles
and torsion angles; correlations between esds in cell parameters are only
used when they are defined by crystal symmetry. An approximate (isotropic)
treatment of cell esds is used for estimating esds involving l.s. planes.
;

loop_
_geom_bond_atom_site_label_1
_geom_bond_atom_site_label_2
_geom_bond_distance
_geom_bond_site_symmetry_2
_geom_bond_publ_flag
Na1 N1 2.386(3) 9 ?
Na1 N1 2.386(3) . ?
Na1 N1 2.386(3) 5 ?
Na1 N4 2.400(3) 9 ?
Na1 N4 2.400(3) . ?
Na1 N4 2.400(3) 5 ?
Na2 N5 2.418(3) . ?
Na2 N5 2.418(3) 27 ?
Na2 N2 2.439(3) 27 ?
Na2 N2 2.439(3) . ?
Na2 N3 2.481(4) 5 ?
Na2 O1 2.515(6) . ?
Na3 Na3 1.217(10) 41_666 ?
Na3 N6 2.374(4) 26_556 ?
Na3 N6 2.374(4) 27 ?
Na3 N6 2.374(4) 4_556 ?
Na3 N6 2.374(4) . ?
N1 C1 1.138(3) . ?
N2 C2 1.141(3) . ?
N3 C3 1.144(5) . ?
N3 Na2 2.481(4) 9 ?
N4 C4 1.139(3) . ?
N5 C5 1.145(3) . ?
N6 C6 1.135(5) . ?
N6 Na3 2.374(4) 41_666 ?
C1 C7 1.423(4) . ?
C2 C8 1.426(4) . ?
C3 C9 1.411(6) . ?
C4 C10 1.412(4) . ?
C5 C11 1.419(4) . ?
C6 C12 1.426(6) . ?
C7 C8 1.395(3) . ?
C7 C9 1.405(3) . ?
C8 C8 1.391(5) 28 ?
C9 C7 1.405(3) 28 ?
C10 C10 1.392(5) 19 ?
C10 C11 1.400(3) . ?
C11 C12 1.395(3) . ?
C12 C11 1.395(3) 19 ?

loop_
_geom_angle_atom_site_label_1
_geom_angle_atom_site_label_2
_geom_angle_atom_site_label_3
_geom_angle
_geom_angle_site_symmetry_1
_geom_angle_site_symmetry_3
_geom_angle_publ_flag
N1 Na1 N1 89.94(10) 9 . ?
N1 Na1 N1 89.94(10) 9 5 ?
N1 Na1 N1 89.94(10) . 5 ?
N1 Na1 N4 87.26(9) 9 9 ?
N1 Na1 N4 91.00(9) . 9 ?
N1 Na1 N4 177.05(9) 5 9 ?
N1 Na1 N4 177.05(9) 9 . ?
N1 Na1 N4 87.26(9) . . ?
N1 Na1 N4 91.00(9) 5 . ?
N4 Na1 N4 91.85(9) 9 . ?
N1 Na1 N4 91.00(9) 9 5 ?
N1 Na1 N4 177.05(9) . 5 ?
N1 Na1 N4 87.26(9) 5 5 ?
N4 Na1 N4 91.85(9) 9 5 ?
N4 Na1 N4 91.85(9) . 5 ?
N5 Na2 N5 88.08(12) . 27 ?
N5 Na2 N2 178.59(11) . 27 ?
N5 Na2 N2 92.08(8) 27 27 ?
N5 Na2 N2 92.08(8) . . ?
N5 Na2 N2 178.59(11) 27 . ?
N2 Na2 N2 87.73(12) 27 . ?
N5 Na2 N3 91.19(9) . 5 ?
N5 Na2 N3 91.19(9) 27 5 ?
N2 Na2 N3 90.21(9) 27 5 ?
N2 Na2 N3 90.21(9) . 5 ?
N5 Na2 O1 87.77(19) . . ?
N5 Na2 O1 87.77(19) 27 . ?
N2 Na2 O1 90.84(19) 27 . ?
N2 Na2 O1 90.84(19) . . ?
N3 Na2 O1 178.5(3) 5 . ?
Na3 Na3 N6 75.15(12) 41_666 26_556 ?
Na3 Na3 N6 75.15(12) 41_666 27 ?
N6 Na3 N6 150.3(2) 26_556 27 ?
Na3 Na3 N6 75.15(12) 41_666 4_556 ?
N6 Na3 N6 86.24(6) 26_556 4_556 ?
N6 Na3 N6 86.24(6) 27 4_556 ?
Na3 Na3 N6 75.15(12) 41_666 . ?
N6 Na3 N6 86.24(6) 26_556 . ?
N6 Na3 N6 86.24(6) 27 . ?
N6 Na3 N6 150.3(2) 4_556 . ?
C1 N1 Na1 179.5(3) . . ?
C2 N2 Na2 172.5(2) . . ?
C3 N3 Na2 174.8(3) . 9 ?
C4 N4 Na1 168.5(2) . . ?
C5 N5 Na2 174.0(2) . . ?
C6 N6 Na3 165.15(12) . . ?
C6 N6 Na3 165.15(12) . 41_666 ?
Na3 N6 Na3 29.7(2) . 41_666 ?
N1 C1 C7 179.4(3) . . ?
N2 C2 C8 179.3(3) . . ?
N3 C3 C9 179.8(4) . . ?
N4 C4 C10 179.1(3) . . ?
N5 C5 C11 178.8(3) . . ?
N6 C6 C12 180.0(4) . . ?
C8 C7 C9 108.1(2) . . ?
C8 C7 C1 126.9(2) . . ?
C9 C7 C1 125.0(2) . . ?
C8 C8 C7 108.22(14) 28 . ?
C8 C8 C2 125.98(14) 28 . ?
C7 C8 C2 125.8(2) . . ?
C7 C9 C7 107.3(3) 28 . ?
C7 C9 C3 126.32(16) 28 . ?
C7 C9 C3 126.32(16) . . ?
C10 C10 C11 108.25(14) 19 . ?
C10 C10 C4 125.39(14) 19 . ?
C11 C10 C4 126.4(2) . . ?
C12 C11 C10 107.3(2) . . ?
C12 C11 C5 126.6(2) . . ?
C10 C11 C5 126.1(2) . . ?
C11 C12 C11 108.8(3) 19 . ?
C11 C12 C6 125.58(14) 19 . ?
C11 C12 C6 125.58(14) . . ?

_diffrn_measured_fraction_theta_max 0.997
_diffrn_reflns_theta_full        22.48
_diffrn_measured_fraction_theta_full 0.997
_refine_diff_density_max         0.825
_refine_diff_density_min         -0.373
_refine_diff_density_rms         0.050


