
#######################################################################
#
#                 Cambridge Crystallographic Data Centre
#                                CCDC
#
#######################################################################
#
# If this CIF has been generated from an entry in the Cambridge
# Structural Database, then it will include bibliographic, chemical,
# crystal, experimental, refinement or atomic coordinate data resulting
# from the CCDC's data processing and validation procedures.
#
#######################################################################

data_CSD_CIF_IYUVAZ
_audit_creation_date 2004-10-12
_audit_creation_method CSD-ConQuest-V1
_database_code_CSD IYUVAZ
_database_code_depnum_ccdc_archive 'CCDC 242480'
_chemical_formula_sum 'C1 Br3 Cl1 F31 O8 S1 Sb1 Te6'
_chemical_formula_moiety
;
C1 Br3 1+,F30 O6 Sb1 Te6 1-,Cl1 F1 O2 S1
;
_journal_coden_Cambridge 4
_journal_volume 126
_journal_year 2004
_journal_page_first 5533
_journal_name_full 'J.Am.Chem.Soc. '
loop_
_publ_author_name
"H.P.A.Mercier"
"M.D.Moran"
"G.J.Schrobilgen"
"C.Steinberg"
"R.J.Suontamo"
_chemical_name_systematic
;
Tribromocarbenium hexakis(pentafluoro-orthotellurato)antimonate (sulfuryl 
chloride fluoride) solvate
;
_chemical_name_common
;
Teaching Subset: Fundamental Chemistry, Symmetry
;
_cell_volume   3537.769
_exptl_crystal_colour 'red-brown'
_exptl_crystal_density_diffrn 3.611
_exptl_crystal_description 'plate'
_diffrn_ambient_temperature 100
#These two values have been output from a single CSD field.
_refine_ls_R_factor_gt 0.0621
_refine_ls_wR_factor_gt 0.0621
_symmetry_cell_setting monoclinic
_symmetry_space_group_name_H-M 'P 21/n'
_symmetry_Int_Tables_number 14
loop_
_symmetry_equiv_pos_site_id
_symmetry_equiv_pos_as_xyz
1 x,y,z
2 1/2-x,1/2+y,1/2-z
3 -x,-y,-z
4 -1/2+x,-1/2-y,-1/2+z
_cell_length_a 18.617(6)
_cell_length_b 9.935(3)
_cell_length_c 19.129(7)
_cell_angle_alpha 90
_cell_angle_beta 90.781(7)
_cell_angle_gamma 90
_cell_formula_units_Z 4
loop_
_atom_type_symbol
_atom_type_radius_bond
C 0.68
Br 1.21
Cl 0.99
F 0.64
O 0.68
S 1.02
Sb 1.46
Te 1.47
loop_
_atom_site_label
_atom_site_type_symbol
_atom_site_fract_x
_atom_site_fract_y
_atom_site_fract_z
Te1 Te 0.55235(6) 0.68630(11) 0.16364(6)
Te2 Te 0.44363(6) 0.80922(11) 0.40459(6)
Sb1 Sb 0.50625(6) 0.98629(11) 0.25379(6)
Te3 Te 0.57179(6) 1.16909(11) 0.10743(6)
Te4 Te 0.68469(6) 1.00954(11) 0.32322(6)
Te5 Te 0.44960(6) 1.27905(10) 0.34459(6)
Te6 Te 0.32885(6) 0.96109(11) 0.18232(6)
F1 F 0.6096(5) 0.5801(9) 0.2213(5)
F2 F 0.3554(5) 0.8555(9) 0.3710(5)
O1 O 0.4150(5) 0.9087(10) 0.2256(5)
O2 O 0.5217(5) 1.0413(10) 0.1576(5)
F3 F 0.5600(5) 0.5559(9) 0.0957(5)
F4 F 0.3456(5) 0.8524(11) 0.1069(5)
F5 F 0.6332(5) 0.7624(10) 0.1284(5)
O3 O 0.6004(5) 1.0632(11) 0.2823(6)
F6 F 0.6226(6) 1.2887(10) 0.0545(5)
O4 O 0.4620(5) 1.1629(10) 0.2708(5)
F7 F 0.5713(5) 1.0563(9) 0.0312(5)
F8 F 0.5241(5) 1.2108(9) 0.3965(5)
F9 F 0.3855(5) 1.1698(9) 0.3892(5)
F10 F 0.7713(5) 0.9604(10) 0.3642(6)
O5 O 0.5510(5) 0.810(1) 0.2337(5)
O6 O 0.4899(6) 0.9380(11) 0.3512(6)
F11 F 0.5121(5) 1.3986(8) 0.3063(5)
F12 F 0.5763(5) 1.2926(10) 0.1784(5)
F13 F 0.4956(5) 0.7810(9) 0.1012(5)
F14 F 0.6589(5) 1.1008(9) 0.1338(5)
F15 F 0.6482(6) 0.853(1) 0.3552(6)
F16 F 0.4719(5) 0.5991(9) 0.1943(5)
F17 F 0.3751(5) 1.3602(9) 0.2973(5)
F18 F 0.4331(5) 0.9326(9) 0.4741(5)
F19 F 0.5276(5) 0.7528(10) 0.4443(5)
F20 F 0.2824(5) 0.8208(9) 0.2244(5)
F21 F 0.6628(6) 1.0936(13) 0.4059(6)
F22 F 0.3672(5) 1.1073(10) 0.1361(6)
F23 F 0.4357(5) 1.4016(9) 0.4148(5)
F24 F 0.2421(5) 1.0067(10) 0.1402(6)
F25 F 0.4489(6) 0.6748(9) 0.3393(6)
F26 F 0.4898(5) 1.2498(10) 0.0745(6)
F27 F 0.3037(5) 1.0713(9) 0.2541(5)
F28 F 0.3987(6) 0.685(1) 0.4608(5)
F29 F 0.7143(6) 0.9234(11) 0.2449(6)
F30 F 0.7254(6) 1.1615(10) 0.2922(6)
Br1 Br 0.75489(10) 0.38178(17) 0.4730(1)
Br2 Br 0.71242(10) 0.68516(18) 0.49125(10)
Br3 Br 0.64520(11) 0.5133(2) 0.36943(12)
C1 C 0.7021(8) 0.5304(16) 0.4446(9)
S1 S 0.3218(2) 0.4706(4) 0.0589(2)
Cl1 Cl 0.3265(3) 0.4239(5) 0.1574(3)
O7 O 0.3217(8) 0.3533(13) 0.0180(7)
O8 O 0.2698(7) 0.5727(12) 0.0476(7)
F31 F 0.3968(5) 0.533(1) 0.0534(5)
#END
