####################################################################### 
# 
# This file contains crystal structure data downloaded from the 
# Cambridge Structural Database (CSD) hosted by the Cambridge 
# Crystallographic Data Centre (CCDC).
# 
# Full information about CCDC data access policies and citation 
# guidelines are available at http://www.ccdc.cam.ac.uk/access/V1 
# 
# Audit and citation data items may have been added by the CCDC. 
# Please retain this information to preserve the provenance of 
# this file and to allow appropriate attribution of the data. 
# 
#######################################################################

data_2
_audit_block_doi                 10.5517/ccwd7l2
_database_code_depnum_ccdc_archive 'CCDC 816124'
loop_
_citation_id
_citation_doi
_citation_year
1 10.1002/anie.201104086 2011
_audit_update_record             
;
2011-03-06 deposited with the CCDC.	2024-07-10 downloaded from the CCDC.
;
#TrackingRef 'web_deposit_cif_file_1_ChengWang_1299448030.cif'


_audit_creation_method           SHELXL-97
_chemical_name_systematic        
;
?
;
_chemical_name_common            ?
_chemical_melting_point          ?
_chemical_formula_moiety         ?
_chemical_formula_sum            'C240 N24 O38 Ru6 Zn8'
_chemical_formula_weight         4956.02

loop_
_atom_type_symbol
_atom_type_description
_atom_type_scat_dispersion_real
_atom_type_scat_dispersion_imag
_atom_type_scat_source
C C 0.0181 0.0091 'International Tables Vol C Tables 4.2.6.8 and 6.1.1.4'
Ru Ru 0.0552 3.2960 'International Tables Vol C Tables 4.2.6.8 and 6.1.1.4'
N N 0.0311 0.0180 'International Tables Vol C Tables 4.2.6.8 and 6.1.1.4'
O O 0.0492 0.0322 'International Tables Vol C Tables 4.2.6.8 and 6.1.1.4'
Zn Zn -1.5491 0.6778 'International Tables Vol C Tables 4.2.6.8 and 6.1.1.4'

_symmetry_cell_setting           Trigonal
_symmetry_space_group_name_H-M   R32

loop_
_symmetry_equiv_pos_as_xyz
'x, y, z'
'-y, x-y, z'
'-x+y, -x, z'
'y, x, -z'
'x-y, -y, -z'
'-x, -x+y, -z'
'x+2/3, y+1/3, z+1/3'
'-y+2/3, x-y+1/3, z+1/3'
'-x+y+2/3, -x+1/3, z+1/3'
'y+2/3, x+1/3, -z+1/3'
'x-y+2/3, -y+1/3, -z+1/3'
'-x+2/3, -x+y+1/3, -z+1/3'
'x+1/3, y+2/3, z+2/3'
'-y+1/3, x-y+2/3, z+2/3'
'-x+y+1/3, -x+2/3, z+2/3'
'y+1/3, x+2/3, -z+2/3'
'x-y+1/3, -y+2/3, -z+2/3'
'-x+1/3, -x+y+2/3, -z+2/3'

_cell_length_a                   29.7977(5)
_cell_length_b                   29.7977(5)
_cell_length_c                   73.0266(11)
_cell_angle_alpha                90.00
_cell_angle_beta                 90.00
_cell_angle_gamma                120.00
_cell_volume                     56153.5(16)
_cell_formula_units_Z            6
_cell_measurement_temperature    293(2)
_cell_measurement_reflns_used    ?
_cell_measurement_theta_min      ?
_cell_measurement_theta_max      ?

_exptl_crystal_description       block
_exptl_crystal_colour            dark_red
_exptl_crystal_size_max          0.34
_exptl_crystal_size_mid          0.27
_exptl_crystal_size_min          0.24
_exptl_crystal_density_meas      ?
_exptl_crystal_density_diffrn    0.879
_exptl_crystal_density_method    'not measured'
_exptl_crystal_F_000             14496
_exptl_absorpt_coefficient_mu    2.827
_exptl_absorpt_correction_type   numerical
_exptl_absorpt_correction_T_min  0.4448
_exptl_absorpt_correction_T_max  0.5526
_exptl_absorpt_process_details   SADABS

_exptl_special_details           
;
?
;

_diffrn_ambient_temperature      293(2)
_diffrn_radiation_wavelength     1.54178
_diffrn_radiation_type           CuK\a
_diffrn_radiation_source         'fine-focus sealed tube'
_diffrn_radiation_monochromator  graphite
_diffrn_measurement_device_type  ?
_diffrn_measurement_method       ?
_diffrn_detector_area_resol_mean ?
_diffrn_standards_number         ?
_diffrn_standards_interval_count ?
_diffrn_standards_interval_time  ?
_diffrn_standards_decay_%        ?
_diffrn_reflns_number            3944
_diffrn_reflns_av_R_equivalents  0.0448
_diffrn_reflns_av_sigmaI/netI    0.1118
_diffrn_reflns_limit_h_min       -10
_diffrn_reflns_limit_h_max       16
_diffrn_reflns_limit_k_min       -10
_diffrn_reflns_limit_k_max       16
_diffrn_reflns_limit_l_min       -40
_diffrn_reflns_limit_l_max       30
_diffrn_reflns_theta_min         1.81
_diffrn_reflns_theta_max         25.36
_reflns_number_total             2257
_reflns_number_gt                861
_reflns_threshold_expression     >2sigma(I)

_computing_data_collection       ?
_computing_cell_refinement       ?
_computing_data_reduction        ?
_computing_structure_solution    'SHELXS-97 (Sheldrick, 1990)'
_computing_structure_refinement  'SHELXL-97 (Sheldrick, 1997)'
_computing_molecular_graphics    ?
_computing_publication_material  ?

_refine_special_details          
;
Refinement of F^2^ against ALL reflections. The weighted R-factor wR and
goodness of fit S are based on F^2^, conventional R-factors R are based
on F, with F set to zero for negative F^2^. The threshold expression of
F^2^ > 2sigma(F^2^) is used only for calculating R-factors(gt) etc. and is
not relevant to the choice of reflections for refinement. R-factors based
on F^2^ are statistically about twice as large as those based on F, and R-
factors based on ALL data will be even larger.
;

_refine_ls_structure_factor_coef Fsqd
_refine_ls_matrix_type           full
_refine_ls_weighting_scheme      calc
_refine_ls_weighting_details     
'calc w=1/[\s^2^(Fo^2^)+(0.2000P)^2^+0.0000P] where P=(Fo^2^+2Fc^2^)/3'
_atom_sites_solution_primary     direct
_atom_sites_solution_secondary   difmap
_atom_sites_solution_hydrogens   none
_refine_ls_hydrogen_treatment    none
_refine_ls_extinction_method     none
_refine_ls_extinction_coef       ?
_refine_ls_abs_structure_details 'Flack H D (1983), Acta Cryst. A39, 876-881'
_refine_ls_abs_structure_Flack   0.29(18)
_refine_ls_number_reflns         2257
_refine_ls_number_parameters     306
_refine_ls_number_restraints     349
_refine_ls_R_factor_all          0.2302
_refine_ls_R_factor_gt           0.1632
_refine_ls_wR_factor_ref         0.4258
_refine_ls_wR_factor_gt          0.3759
_refine_ls_goodness_of_fit_ref   1.185
_refine_ls_restrained_S_all      1.190
_refine_ls_shift/su_max          0.128
_refine_ls_shift/su_mean         0.008

loop_
_atom_site_label
_atom_site_type_symbol
_atom_site_fract_x
_atom_site_fract_y
_atom_site_fract_z
_atom_site_U_iso_or_equiv
_atom_site_adp_type
_atom_site_occupancy
_atom_site_symmetry_multiplicity
_atom_site_calc_flag
_atom_site_refinement_flags
_atom_site_disorder_assembly
_atom_site_disorder_group
C1G C 0.4117(15) 0.5866(12) 0.0805(3) 0.26(2) Uiso 1 1 d GDU . .
C2G C 0.4623(13) 0.5990(12) 0.0844(4) 0.35(3) Uiso 1 1 d GDU . .
C3G C 0.4716(12) 0.5678(14) 0.0961(4) 0.44(3) Uiso 1 1 d GDU . .
C4G C 0.4303(13) 0.5240(12) 0.1039(3) 0.49(3) Uiso 1 1 d GDU . .
C5G C 0.3797(12) 0.5116(12) 0.1000(4) 0.47(3) Uiso 1 1 d GDU . .
C6G C 0.3704(12) 0.5429(13) 0.0883(4) 0.35(3) Uiso 1 1 d GDU . .
C7G C 0.3940(15) 0.6159(12) 0.0680(3) 0.16(2) Uiso 1 1 d DU . .
C1H C 0.5515(16) 0.3815(14) 0.1708(3) 0.48(3) Uiso 1 1 d GDU . .
C2H C 0.5791(13) 0.4276(14) 0.1611(5) 0.51(4) Uiso 1 1 d GDU . .
C3H C 0.5529(14) 0.4463(13) 0.1508(5) 0.59(3) Uiso 1 1 d GDU . .
C4H C 0.4991(14) 0.4191(13) 0.1501(4) 0.58(4) Uiso 1 1 d GDU . .
C5H C 0.4714(13) 0.3730(13) 0.1598(5) 0.59(4) Uiso 1 1 d GDU . .
C6H C 0.4976(16) 0.3543(13) 0.1702(4) 0.57(4) Uiso 1 1 d GDU . .
C8G C 0.3335(16) 0.4637(16) 0.1094(6) 0.52(4) Uiso 1 1 d DU . .
C1J C 0.7479(10) 0.4976(11) 0.2433(5) 0.31(3) Uiso 1 1 d GDU . .
C2J C 0.7407(13) 0.5023(11) 0.2619(5) 0.39(3) Uiso 1 1 d GDU . .
C3J C 0.7664(14) 0.5507(12) 0.2702(4) 0.48(3) Uiso 1 1 d GDU . .
C4J C 0.7993(12) 0.5943(11) 0.2600(4) 0.49(3) Uiso 1 1 d GDU . .
C5J C 0.8065(12) 0.5896(12) 0.2415(4) 0.47(3) Uiso 1 1 d GDU . .
C6J C 0.7808(12) 0.5412(13) 0.2331(4) 0.40(3) Uiso 1 1 d GDU . .
C7H C 0.5831(15) 0.3632(15) 0.1819(3) 0.32(3) Uiso 1 1 d DU . .
C1K C 0.9189(13) 0.8531(13) 0.3270(5) 0.57(3) Uiso 1 1 d GDU . .
C2K C 0.8889(16) 0.8021(14) 0.3328(5) 0.57(4) Uiso 1 1 d GDU . .
C3K C 0.8645(16) 0.7625(12) 0.3201(5) 0.62(3) Uiso 1 1 d GDU . .
C4K C 0.8701(14) 0.7739(12) 0.3014(5) 0.60(3) Uiso 1 1 d GDU . .
C5K C 0.9001(15) 0.8249(13) 0.2956(5) 0.61(3) Uiso 1 1 d GDU . .
C6K C 0.9245(14) 0.8645(12) 0.3084(6) 0.61(4) Uiso 1 1 d GDU . .
C9G C 0.351(3) 0.433(3) 0.1182(14) 0.64(7) Uiso 1 1 d DU . .
C10G C 0.295(3) 0.434(3) 0.0966(9) 0.52(6) Uiso 1 1 d DU . .
C11G C 0.315(3) 0.483(3) 0.1234(10) 0.37(5) Uiso 1 1 d DU . .
C12G C 0.5241(13) 0.5836(19) 0.0996(5) 0.52(4) Uiso 1 1 d DU . .
C8H C 0.4109(15) 0.3407(19) 0.1597(8) 0.63(4) Uiso 1 1 d DU . .
C9H C 0.394(3) 0.302(4) 0.1734(14) 0.56(7) Uiso 1 1 d DU . .
C10H C 0.393(3) 0.317(5) 0.1427(11) 0.66(7) Uiso 1 1 d DU . .
C11H C 0.391(3) 0.373(3) 0.1629(19) 0.56(7) Uiso 1 1 d DU . .
C12H C 0.5872(14) 0.4933(17) 0.1420(8) 0.63(4) Uiso 1 1 d DU . .
C1I C 0.5942(13) 0.6049(13) 0.1208(8) 0.64(4) Uiso 1 1 d DU . .
C2I C 0.6343(16) 0.656(2) 0.1100(12) 0.61(4) Uiso 1 1 d DU . .
C3I C 0.6893(18) 0.671(3) 0.1105(11) 0.59(5) Uiso 1 1 d DU . .
C4I C 0.7035(18) 0.654(2) 0.1272(12) 0.55(5) Uiso 1 1 d DU . .
C5I C 0.6721(13) 0.597(2) 0.1326(12) 0.55(4) Uiso 1 1 d DU . .
C6I C 0.6126(11) 0.5704(16) 0.1239(7) 0.61(4) Uiso 1 1 d DU . .
C7J C 0.7197(10) 0.4442(12) 0.2339(5) 0.21(2) Uiso 1 1 d DU . .
C8J C 0.8438(17) 0.6408(15) 0.2311(6) 0.54(4) Uiso 1 1 d DU . .
C9J C 0.892(2) 0.666(3) 0.2399(12) 0.46(6) Uiso 1 1 d DU . .
C10J C 0.822(3) 0.673(3) 0.2318(15) 0.52(6) Uiso 1 1 d DU . .
C11J C 0.850(4) 0.630(3) 0.2129(7) 0.65(7) Uiso 1 1 d DU . .
C12J C 0.756(2) 0.5504(13) 0.2891(4) 0.55(4) Uiso 1 1 d DU . .
C7K C 0.9452(16) 0.8956(15) 0.3415(6) 0.50(3) Uiso 1 1 d DU . .
C8K C 0.906(2) 0.8367(19) 0.2747(5) 0.62(4) Uiso 1 1 d DU . .
C9K C 0.942(5) 0.826(5) 0.2674(10) 0.54(6) Uiso 1 1 d DU . .
C10K C 0.920(6) 0.889(2) 0.2722(11) 0.66(7) Uiso 1 1 d DU . .
C11K C 0.856(3) 0.805(5) 0.2670(10) 0.58(7) Uiso 1 1 d DU . .
C12K C 0.835(3) 0.7128(12) 0.3280(5) 0.65(3) Uiso 1 1 d DU . .
C1L C 0.802(3) 0.5813(12) 0.3179(5) 0.72(4) Uiso 1 1 d DU . .
C2L C 0.780(4) 0.5270(14) 0.3273(7) 0.72(5) Uiso 1 1 d DU . .
C3L C 0.776(4) 0.523(2) 0.3474(7) 0.69(5) Uiso 1 1 d DU . .
C4L C 0.813(4) 0.570(2) 0.3569(6) 0.67(5) Uiso 1 1 d DU . .
C5L C 0.819(5) 0.622(2) 0.3508(4) 0.69(4) Uiso 1 1 d DU . .
C6L C 0.826(2) 0.6270(14) 0.3282(4) 0.69(3) Uiso 1 1 d DU . .
N5 N 0.5038(16) 0.4681(17) 0.1054(4) 0.601 Uiso 1 1 d GDU . .
C15 C 0.4603(17) 0.443(3) 0.0942(8) 0.62(4) Uiso 1 1 d GDU . .
C25 C 0.464(3) 0.425(3) 0.0770(7) 0.63(4) Uiso 1 1 d GU . .
C35 C 0.512(4) 0.433(3) 0.0710(5) 0.69(4) Uiso 1 1 d GU . .
C45 C 0.556(3) 0.459(4) 0.0821(9) 0.72(4) Uiso 1 1 d GU . .
C55 C 0.5514(18) 0.476(3) 0.0993(8) 0.69(4) Uiso 1 1 d GDU . .
N1I N 0.5418(12) 0.5785(12) 0.1167(5) 0.61(4) Uiso 1 1 d DU . .
N6 N 0.4962(16) 0.5364(17) 0.1480(4) 0.55(4) Uiso 1 1 d GDU . .
C16 C 0.4467(17) 0.526(3) 0.1524(8) 0.57(4) Uiso 1 1 d GDU . .
C26 C 0.438(3) 0.543(3) 0.1692(9) 0.61(5) Uiso 1 1 d GU . .
C36 C 0.478(4) 0.569(3) 0.1815(6) 0.59(5) Uiso 1 1 d GU . .
C46 C 0.528(3) 0.579(3) 0.1771(6) 0.59(5) Uiso 1 1 d GU . .
C56 C 0.5366(19) 0.563(2) 0.1604(7) 0.59(5) Uiso 1 1 d GDU . .
N2I N 0.5750(11) 0.5285(14) 0.1355(6) 0.63(4) Uiso 1 1 d DU . .
N7 N 0.8931(11) 0.6804(18) 0.2934(6) 0.683 Uiso 1 1 d GDU . .
C17 C 0.912(2) 0.655(3) 0.2822(10) 0.73(4) Uiso 1 1 d GDU . .
C27 C 0.965(2) 0.673(4) 0.2814(13) 0.77(4) Uiso 1 1 d GU . .
C37 C 0.9989(12) 0.716(3) 0.2916(13) 0.77(5) Uiso 1 1 d GU . .
C47 C 0.9804(16) 0.741(3) 0.3027(13) 0.76(4) Uiso 1 1 d GU . .
C57 C 0.9275(18) 0.723(3) 0.3036(10) 0.69(4) Uiso 1 1 d GDU . .
N1L N 0.7838(19) 0.5888(9) 0.3012(4) 0.66(4) Uiso 1 1 d DU . .
N8 N 0.7557(13) 0.655(2) 0.2906(5) 0.734 Uiso 1 1 d GDU . .
C18 C 0.742(2) 0.665(4) 0.2736(6) 0.76(4) Uiso 1 1 d GDU . .
C28 C 0.698(3) 0.670(4) 0.2719(11) 0.75(4) Uiso 1 1 d GU . .
C38 C 0.669(2) 0.666(4) 0.2872(13) 0.73(5) Uiso 1 1 d GU . .
C48 C 0.682(2) 0.655(4) 0.3042(11) 0.75(4) Uiso 1 1 d GU . .
C58 C 0.726(2) 0.650(4) 0.3059(7) 0.74(4) Uiso 1 1 d GDU . .
N2L N 0.8137(19) 0.6656(12) 0.3197(3) 0.605 Uiso 1 1 d DU . .
O1G O 0.4247(15) 0.6571(13) 0.0576(4) 0.134(18) Uiso 1 1 d DU . .
O2G O 0.3417(14) 0.5949(14) 0.0687(5) 0.141(19) Uiso 1 1 d DU . .
O3G O 0.4363(12) 0.4910(14) 0.1164(4) 0.525 Uiso 1 1 d DU . .
O1H O 0.6337(15) 0.3957(17) 0.1867(6) 0.23(2) Uiso 1 1 d DU . .
O2H O 0.561(2) 0.3132(16) 0.1875(7) 0.32(3) Uiso 1 1 d DU . .
O3H O 0.4739(14) 0.4402(12) 0.1395(5) 0.60(4) Uiso 1 1 d DU . .
O1J O 0.7090(15) 0.4010(12) 0.2433(4) 0.133(15) Uiso 1 1 d DU . .
O2J O 0.7062(14) 0.4429(13) 0.2160(5) 0.162(18) Uiso 1 1 d DU . .
O3J O 0.8272(14) 0.6459(12) 0.2669(3) 0.498 Uiso 1 1 d DU . .
O1K O 0.939(3) 0.883(2) 0.3596(6) 0.42(3) Uiso 1 1 d DU . .
O2K O 0.976(4) 0.9469(16) 0.3375(8) 0.52(4) Uiso 1 1 d DU . .
O3K O 0.8458(17) 0.7344(10) 0.2880(5) 0.560 Uiso 1 1 d DU . .
Ru3 Ru 0.5021(9) 0.5043(9) 0.1267(2) 0.627(10) Uiso 1 1 d D . .
Ru4 Ru 0.8227(8) 0.6628(6) 0.2924(2) 0.595(10) Uiso 1 1 d D . .
Zn5 Zn 0.6346 0.3743 0.7164 0.307 Uiso 1 1 d . . .
Zn6 Zn 0.3736 0.7329 0.5322 0.244 Uiso 1 1 d . . .
Zn7 Zn 0.3333 0.6667 0.5662 0.203 Uiso 1 3 d S . .
Zn8 Zn 0.3333 0.6667 0.0177 0.463 Uiso 1 3 d S . .
O3 O 0.3333 0.6667 0.7920 0.222 Uiso 1 3 d S . .
O4 O 0.3333 0.6667 0.2839 0.175 Uiso 1 3 d S . .

_geom_special_details            
;
All esds (except the esd in the dihedral angle between two l.s. planes)
are estimated using the full covariance matrix. The cell esds are taken
into account individually in the estimation of esds in distances, angles
and torsion angles; correlations between esds in cell parameters are only
used when they are defined by crystal symmetry. An approximate (isotropic)
treatment of cell esds is used for estimating esds involving l.s. planes.
;

loop_
_geom_bond_atom_site_label_1
_geom_bond_atom_site_label_2
_geom_bond_distance
_geom_bond_site_symmetry_2
_geom_bond_publ_flag
C1G C2G 1.3900 . ?
C1G C6G 1.3900 . ?
C1G C7G 1.528(17) . ?
C2G C3G 1.3900 . ?
C3G C4G 1.3900 . ?
C3G C12G 1.414(18) . ?
C4G C5G 1.3900 . ?
C4G O3G 1.418(18) . ?
C5G C6G 1.3900 . ?
C5G C8G 1.561(17) . ?
C7G O1G 1.340(19) . ?
C7G O2G 1.360(19) . ?
C7G Zn5 2.67(3) 9_564 ?
C1H C2H 1.3900 . ?
C1H C6H 1.3900 . ?
C1H C7H 1.535(18) . ?
C2H C3H 1.3900 . ?
C3H C4H 1.3900 . ?
C3H C12H 1.408(18) . ?
C4H C5H 1.3900 . ?
C4H O3H 1.426(18) . ?
C5H C6H 1.3900 . ?
C5H C8H 1.564(17) . ?
C8G C9G 1.40(2) . ?
C8G C10G 1.39(2) . ?
C8G C11G 1.41(2) . ?
C1J C2J 1.3900 . ?
C1J C6J 1.3900 . ?
C1J C7J 1.539(17) . ?
C2J C3J 1.3900 . ?
C3J C4J 1.3900 . ?
C3J C12J 1.412(18) . ?
C4J C5J 1.3900 . ?
C4J O3J 1.424(18) . ?
C5J C6J 1.3900 . ?
C5J C8J 1.562(18) . ?
C7H O2H 1.36(2) . ?
C7H O1H 1.37(2) . ?
C7H Zn6 2.33(3) 14_654 ?
C1K C2K 1.3900 . ?
C1K C6K 1.3900 . ?
C1K C7K 1.535(18) . ?
C2K C3K 1.3900 . ?
C3K C4K 1.3900 . ?
C3K C12K 1.416(18) . ?
C4K C5K 1.3900 . ?
C4K O3K 1.424(18) . ?
C5K C6K 1.3900 . ?
C5K C8K 1.560(18) . ?
C12G N1I 1.39(2) . ?
C8H C10H 1.40(2) . ?
C8H C11H 1.40(2) . ?
C8H C9H 1.41(2) . ?
C12H N2I 1.356(19) . ?
C1I N1I 1.385(17) . ?
C1I C6I 1.40(2) . ?
C1I C2I 1.590(19) . ?
C2I C3I 1.47(2) . ?
C3I C4I 1.45(2) . ?
C4I C5I 1.52(2) . ?
C5I C6I 1.67(2) . ?
C6I N2I 1.46(2) . ?
C7J O1J 1.349(19) . ?
C7J O2J 1.368(19) . ?
C8J C10J 1.41(2) . ?
C8J C11J 1.40(2) . ?
C8J C9J 1.40(2) . ?
C12J N1L 1.355(19) . ?
C7K O2K 1.36(2) . ?
C7K O1K 1.36(2) . ?
C8K C9K 1.37(5) . ?
C8K C11K 1.40(2) . ?
C8K C10K 1.41(2) . ?
C12K N2L 1.364(19) . ?
C1L N1L 1.394(19) . ?
C1L C6L 1.400(19) . ?
C1L C2L 1.568(18) . ?
C2L C3L 1.47(2) . ?
C3L C4L 1.45(2) . ?
C4L C5L 1.53(2) . ?
C5L C6L 1.66(2) . ?
C6L N2L 1.50(2) . ?
N5 C15 1.3900 . ?
N5 C55 1.3900 . ?
N5 Ru3 1.907(16) . ?
C15 C25 1.3900 . ?
C25 C35 1.3900 . ?
C35 C45 1.3900 . ?
C45 C55 1.3900 . ?
N1I Ru3 2.048(18) . ?
N6 C16 1.3900 . ?
N6 C56 1.3900 . ?
N6 Ru3 1.882(16) . ?
C16 C26 1.3900 . ?
C26 C36 1.3900 . ?
C36 C46 1.3900 . ?
C46 C56 1.3900 . ?
N2I Ru3 2.023(18) . ?
N7 C17 1.3900 . ?
N7 C57 1.3900 . ?
N7 Ru4 1.891(17) . ?
C17 C27 1.3900 . ?
C27 C37 1.3900 . ?
C37 C47 1.3900 . ?
C47 C57 1.3900 . ?
N1L Ru4 2.018(18) . ?
N8 C18 1.3900 . ?
N8 C58 1.3900 . ?
N8 Ru4 1.897(17) . ?
C18 C28 1.3900 . ?
C28 C38 1.3900 . ?
C38 C48 1.3900 . ?
C48 C58 1.3900 . ?
N2L Ru4 2.020(18) . ?
O1G Zn5 1.69(3) 9_564 ?
O2G Zn5 2.00(3) 8_554 ?
O3G Ru3 1.944(18) . ?
O1H Zn6 2.30(4) 13_544 ?
O1H Zn6 2.47(4) 14_654 ?
O2H Zn6 1.51(5) 14_654 ?
O3H Ru3 1.905(19) . ?
O1J Zn7 1.92(3) 13_544 ?
O2J Zn6 1.80(3) 13_544 ?
O3J Ru4 1.949(18) . ?
O1K Zn5 2.05(5) 14_654 ?
O2K Zn8 1.69(5) 7 ?
O3K Ru4 1.915(19) . ?
Zn5 O1G 1.69(3) 14_655 ?
Zn5 O4 1.8890 4_556 ?
Zn5 O2G 2.00(3) 15 ?
Zn5 O1K 2.05(5) 9_565 ?
Zn5 C7G 2.67(3) 14_655 ?
Zn5 Zn8 3.0091 13_545 ?
Zn6 O2H 1.51(5) 9_565 ?
Zn6 O2J 1.80(3) 7_455 ?
Zn6 O3 1.8479 10_456 ?
Zn6 C7H 2.33(3) 9_565 ?
Zn6 O1H 2.30(4) 7_455 ?
Zn6 O1H 2.47(4) 9_565 ?
Zn6 Zn6 2.9844 3_565 ?
Zn6 Zn6 2.9844 2_665 ?
Zn6 Zn7 3.0208 . ?
Zn7 O3 1.8133 10_456 ?
Zn7 O1J 1.92(3) 9_565 ?
Zn7 O1J 1.92(3) 7_455 ?
Zn7 O1J 1.92(3) 8 ?
Zn7 Zn6 3.0208 2_665 ?
Zn7 Zn6 3.0208 3_565 ?
Zn8 O2K 1.69(5) 15_564 ?
Zn8 O2K 1.69(5) 13_444 ?
Zn8 O2K 1.69(5) 14_654 ?
Zn8 O4 2.3208 10_455 ?
Zn8 Zn5 3.0089 9_564 ?
Zn8 Zn5 3.0089 8_554 ?
Zn8 Zn5 3.0091 7_454 ?
O3 Zn7 1.8133 10_456 ?
O3 Zn6 1.8479 11_566 ?
O3 Zn6 1.8479 10_456 ?
O3 Zn6 1.8481 12_556 ?
O4 Zn5 1.8890 6_666 ?
O4 Zn5 1.8890 5_566 ?
O4 Zn5 1.8890 4_556 ?
O4 Zn8 2.3208 10_455 ?

loop_
_geom_angle_atom_site_label_1
_geom_angle_atom_site_label_2
_geom_angle_atom_site_label_3
_geom_angle
_geom_angle_site_symmetry_1
_geom_angle_site_symmetry_3
_geom_angle_publ_flag
C2G C1G C6G 120.0 . . ?
C2G C1G C7G 127.5(17) . . ?
C6G C1G C7G 112.5(17) . . ?
C3G C2G C1G 120.0 . . ?
C2G C3G C4G 120.0 . . ?
C2G C3G C12G 116.6(19) . . ?
C4G C3G C12G 123.4(18) . . ?
C5G C4G C3G 120.0 . . ?
C5G C4G O3G 116.3(18) . . ?
C3G C4G O3G 123.7(18) . . ?
C4G C5G C6G 120.0 . . ?
C4G C5G C8G 119.8(18) . . ?
C6G C5G C8G 120.2(18) . . ?
C5G C6G C1G 120.0 . . ?
O1G C7G O2G 123(3) . . ?
O1G C7G C1G 126(3) . . ?
O2G C7G C1G 111(