####################################################################### 
# 
# This file contains crystal structure data downloaded from the 
# Cambridge Structural Database (CSD) hosted by the Cambridge 
# Crystallographic Data Centre (CCDC).
# 
# Full information about CCDC data access policies and citation 
# guidelines are available at http://www.ccdc.cam.ac.uk/access/V1 
# 
# Audit and citation data items may have been added by the CCDC. 
# Please retain this information to preserve the provenance of 
# this file and to allow appropriate attribution of the data. 
# 
#######################################################################

data_3
_audit_block_doi                 10.5517/ccwd7m3
_database_code_depnum_ccdc_archive 'CCDC 816125'
loop_
_citation_id
_citation_doi
_citation_year
1 10.1002/anie.201104086 2011
_audit_update_record             
;
2011-03-06 deposited with the CCDC.	2024-07-10 downloaded from the CCDC.
;
#TrackingRef 'web_deposit_cif_file_2_ChengWang_1299448030.cif'


_audit_creation_method           SHELXL-97
_chemical_name_systematic        
;
?
;
_chemical_name_common            ?
_chemical_melting_point          ?
_chemical_formula_moiety         ?
_chemical_formula_sum            'C240 N24 O38 Ru6 Zn8'
_chemical_formula_weight         4956.02

loop_
_atom_type_symbol
_atom_type_description
_atom_type_scat_dispersion_real
_atom_type_scat_dispersion_imag
_atom_type_scat_source
C C 0.0181 0.0091 'International Tables Vol C Tables 4.2.6.8 and 6.1.1.4'
N N 0.0311 0.0180 'International Tables Vol C Tables 4.2.6.8 and 6.1.1.4'
O O 0.0492 0.0322 'International Tables Vol C Tables 4.2.6.8 and 6.1.1.4'
Ru Ru 0.0552 3.2960 'International Tables Vol C Tables 4.2.6.8 and 6.1.1.4'
Zn Zn -1.5491 0.6778 'International Tables Vol C Tables 4.2.6.8 and 6.1.1.4'

_symmetry_cell_setting           Trigonal
_symmetry_space_group_name_H-M   R3

loop_
_symmetry_equiv_pos_as_xyz
'x, y, z'
'-y, x-y, z'
'-x+y, -x, z'
'x+2/3, y+1/3, z+1/3'
'-y+2/3, x-y+1/3, z+1/3'
'-x+y+2/3, -x+1/3, z+1/3'
'x+1/3, y+2/3, z+2/3'
'-y+1/3, x-y+2/3, z+2/3'
'-x+y+1/3, -x+2/3, z+2/3'

_cell_length_a                   29.6808(3)
_cell_length_b                   29.6808(3)
_cell_length_c                   72.690(2)
_cell_angle_alpha                90.00
_cell_angle_beta                 90.00
_cell_angle_gamma                120.00
_cell_volume                     55457.2(17)
_cell_formula_units_Z            3
_cell_measurement_temperature    296(2)
_cell_measurement_reflns_used    ?
_cell_measurement_theta_min      ?
_cell_measurement_theta_max      ?

_exptl_crystal_description       cube
_exptl_crystal_colour            Dark_green
_exptl_crystal_size_max          0.23
_exptl_crystal_size_mid          0.22
_exptl_crystal_size_min          0.18
_exptl_crystal_density_meas      ?
_exptl_crystal_density_diffrn    0.445
_exptl_crystal_density_method    'not measured'
_exptl_crystal_F_000             7248
_exptl_absorpt_coefficient_mu    1.431
_exptl_absorpt_correction_type   numerical
_exptl_absorpt_correction_T_min  0.7380
_exptl_absorpt_correction_T_max  0.7827
_exptl_absorpt_process_details   SADABS

_exptl_special_details           
;
?
;

_diffrn_ambient_temperature      296(2)
_diffrn_radiation_wavelength     1.54178
_diffrn_radiation_type           CuK\a
_diffrn_radiation_source         'fine-focus sealed tube'
_diffrn_radiation_monochromator  graphite
_diffrn_measurement_device_type  ?
_diffrn_measurement_method       ?
_diffrn_detector_area_resol_mean ?
_diffrn_standards_number         ?
_diffrn_standards_interval_count ?
_diffrn_standards_interval_time  ?
_diffrn_standards_decay_%        ?
_diffrn_reflns_number            11937
_diffrn_reflns_av_R_equivalents  0.0777
_diffrn_reflns_av_sigmaI/netI    0.1446
_diffrn_reflns_limit_h_min       -21
_diffrn_reflns_limit_h_max       16
_diffrn_reflns_limit_k_min       -16
_diffrn_reflns_limit_k_max       21
_diffrn_reflns_limit_l_min       -51
_diffrn_reflns_limit_l_max       40
_diffrn_reflns_theta_min         1.82
_diffrn_reflns_theta_max         33.43
_reflns_number_total             7301
_reflns_number_gt                2825
_reflns_threshold_expression     >2sigma(I)

_computing_data_collection       ?
_computing_cell_refinement       ?
_computing_data_reduction        ?
_computing_structure_solution    'SHELXS-97 (Sheldrick, 1990)'
_computing_structure_refinement  'SHELXL-97 (Sheldrick, 1997)'
_computing_molecular_graphics    ?
_computing_publication_material  ?

_refine_special_details          
;
Refinement of F^2^ against ALL reflections. The weighted R-factor wR and
goodness of fit S are based on F^2^, conventional R-factors R are based
on F, with F set to zero for negative F^2^. The threshold expression of
F^2^ > 2sigma(F^2^) is used only for calculating R-factors(gt) etc. and is
not relevant to the choice of reflections for refinement. R-factors based
on F^2^ are statistically about twice as large as those based on F, and R-
factors based on ALL data will be even larger.
;

_refine_ls_structure_factor_coef Fsqd
_refine_ls_matrix_type           full
_refine_ls_weighting_scheme      calc
_refine_ls_weighting_details     
'calc w=1/[\s^2^(Fo^2^)+(0.2000P)^2^+0.0000P] where P=(Fo^2^+2Fc^2^)/3'
_atom_sites_solution_primary     direct
_atom_sites_solution_secondary   difmap
_atom_sites_solution_hydrogens   none
_refine_ls_hydrogen_treatment    none
_refine_ls_extinction_method     none
_refine_ls_extinction_coef       ?
_refine_ls_abs_structure_details 'Flack H D (1983), Acta Cryst. A39, 876-881'
_refine_ls_abs_structure_Flack   -0.06(5)
_refine_ls_number_reflns         7301
_refine_ls_number_parameters     222
_refine_ls_number_restraints     282
_refine_ls_R_factor_all          0.1838
_refine_ls_R_factor_gt           0.1381
_refine_ls_wR_factor_ref         0.3889
_refine_ls_wR_factor_gt          0.3365
_refine_ls_goodness_of_fit_ref   1.037
_refine_ls_restrained_S_all      1.070
_refine_ls_shift/su_max          0.146
_refine_ls_shift/su_mean         0.007

loop_
_atom_site_label
_atom_site_type_symbol
_atom_site_fract_x
_atom_site_fract_y
_atom_site_fract_z
_atom_site_U_iso_or_equiv
_atom_site_adp_type
_atom_site_occupancy
_atom_site_symmetry_multiplicity
_atom_site_calc_flag
_atom_site_refinement_flags
_atom_site_disorder_assembly
_atom_site_disorder_group
C1G C 0.4815(8) 0.7419(6) 0.1497(3) 0.334 Uiso 1 1 d GD . .
C2G C 0.5337(9) 0.7689(7) 0.1546(3) 0.300 Uiso 1 1 d GD . .
C3G C 0.5719(7) 0.7903(7) 0.1411(4) 0.318 Uiso 1 1 d GD . .
C4G C 0.5579(8) 0.7846(6) 0.1227(3) 0.366 Uiso 1 1 d GD . .
C5G C 0.5057(9) 0.7576(8) 0.1177(3) 0.364 Uiso 1 1 d GD . .
C6G C 0.4675(7) 0.7363(6) 0.1312(4) 0.373 Uiso 1 1 d GD . .
C7G C 0.4380(10) 0.7176(8) 0.1641(3) 0.252 Uiso 1 1 d D . .
C1H C 0.8394(7) 0.9191(5) 0.0623(3) 0.314 Uiso 1 1 d GD . .
C2H C 0.8357(7) 0.9192(7) 0.0814(3) 0.328 Uiso 1 1 d GD . .
C3H C 0.7871(9) 0.8950(7) 0.0898(3) 0.308 Uiso 1 1 d GD . .
C4H C 0.7422(7) 0.8706(7) 0.0791(3) 0.304 Uiso 1 1 d GD . .
C5H C 0.7460(8) 0.8705(7) 0.0600(3) 0.336 Uiso 1 1 d GD . .
C6H C 0.7945(9) 0.8947(7) 0.0516(3) 0.291 Uiso 1 1 d GD . .
C8G C 0.4934(12) 0.7520(12) 0.0967(4) 0.300 Uiso 1 1 d D . .
C1J C 0.5802(9) 0.4004(9) 0.31714(19) 0.351 Uiso 1 1 d GD . .
C2J C 0.6036(7) 0.4475(8) 0.3077(3) 0.322 Uiso 1 1 d GD . .
C3J C 0.5749(9) 0.4584(7) 0.2953(3) 0.342 Uiso 1 1 d GD . .
C4J C 0.5228(9) 0.4223(9) 0.2922(2) 0.295 Uiso 1 1 d GD . .
C5J C 0.4995(8) 0.3752(8) 0.3016(3) 0.328 Uiso 1 1 d GD . .
C6J C 0.5282(9) 0.3642(8) 0.3141(2) 0.380 Uiso 1 1 d GD . .
C7H C 0.8940(9) 0.9463(6) 0.0531(4) 0.257 Uiso 1 1 d D . .
C1K C 0.4024(9) 0.5751(9) 0.23015(19) 0.305 Uiso 1 1 d GD . .
C2K C 0.4490(9) 0.5980(7) 0.2399(3) 0.344 Uiso 1 1 d GD . .
C3K C 0.4630(8) 0.5672(9) 0.2500(3) 0.355 Uiso 1 1 d GD . .
C4K C 0.4304(9) 0.5135(8) 0.2504(2) 0.310 Uiso 1 1 d GD . .
C5K C 0.3838(8) 0.4907(7) 0.2407(3) 0.338 Uiso 1 1 d GD . .
C6K C 0.3699(7) 0.5215(9) 0.2306(2) 0.308 Uiso 1 1 d GD . .
C9G C 0.5129(12) 0.8002(13) 0.0883(6) 0.320 Uiso 1 1 d D . .
C10G C 0.5156(12) 0.7221(13) 0.0903(6) 0.313 Uiso 1 1 d D . .
C11G C 0.4386(13) 0.7230(18) 0.0936(8) 0.390 Uiso 1 1 d D . .
C12G C 0.6230(8) 0.8160(10) 0.1476(4) 0.336 Uiso 1 1 d D . .
C8H C 0.6926(10) 0.8421(11) 0.0490(5) 0.350 Uiso 1 1 d D . .
C9H C 0.6982(17) 0.8465(18) 0.0297(4) 0.361 Uiso 1 1 d D . .
C10H C 0.6646(15) 0.7886(11) 0.0537(4) 0.312 Uiso 1 1 d D . .
C11H C 0.6606(13) 0.8641(14) 0.0525(4) 0.254 Uiso 1 1 d D . .
C12H C 0.7885(9) 0.8983(10) 0.1092(3) 0.362 Uiso 1 1 d D . .
C1I C 0.7038(10) 0.8934(12) 0.1463(3) 0.315 Uiso 1 1 d D . .
C2I C 0.7162(14) 0.8967(14) 0.1680(3) 0.324 Uiso 1 1 d D . .
C3I C 0.7505(17) 0.9515(16) 0.1741(5) 0.320 Uiso 1 1 d D . .
C4I C 0.7933(15) 0.9828(14) 0.1614(5) 0.323 Uiso 1 1 d D . .
C5I C 0.8036(10) 0.9584(15) 0.1443(5) 0.311 Uiso 1 1 d D . .
C6I C 0.7494(8) 0.9124(8) 0.1358(3) 0.300 Uiso 1 1 d D . .
C7J C 0.6104(10) 0.3863(8) 0.3310(3) 0.250 Uiso 1 1 d D . .
C8J C 0.4416(10) 0.3332(11) 0.2993(5) 0.307 Uiso 1 1 d D . .
C9J C 0.4277(16) 0.2826(13) 0.3058(7) 0.325 Uiso 1 1 d D . .
C10J C 0.4269(16) 0.3260(10) 0.2807(5) 0.356 Uiso 1 1 d D . .
C11J C 0.4150(15) 0.3512(16) 0.3101(7) 0.316 Uiso 1 1 d D . .
C12J C 0.6016(10) 0.5080(9) 0.2865(5) 0.373 Uiso 1 1 d D . .
C7K C 0.3868(9) 0.6082(10) 0.2189(3) 0.259 Uiso 1 1 d D . .
C8K C 0.3492(11) 0.4308(9) 0.2421(5) 0.301 Uiso 1 1 d D . .
C9K C 0.3007(13) 0.4121(15) 0.2330(6) 0.290 Uiso 1 1 d D . .
C10K C 0.3342(9) 0.4156(13) 0.2604(5) 0.289 Uiso 1 1 d D . .
C11K C 0.3799(13) 0.4133(16) 0.2337(6) 0.379 Uiso 1 1 d D . .
C12K C 0.5096(11) 0.5977(9) 0.2584(5) 0.309 Uiso 1 1 d D . .
C1L C 0.6061(8) 0.5890(8) 0.2837(4) 0.354 Uiso 1 1 d D . .
C2L C 0.6384(17) 0.6162(13) 0.3021(6) 0.348 Uiso 1 1 d D . .
C3L C 0.6589(19) 0.6717(14) 0.3048(8) 0.368 Uiso 1 1 d D . .
C4L C 0.632(2) 0.6961(13) 0.2966(8) 0.399 Uiso 1 1 d D . .
C5L C 0.5971(18) 0.6719(8) 0.2799(8) 0.379 Uiso 1 1 d D . .
C6L C 0.5750(15) 0.6093(7) 0.2790(7) 0.359 Uiso 1 1 d D . .
N5 N 0.6656(10) 0.9100(7) 0.1075(2) 0.368 Uiso 1 1 d GD . .
C15 C 0.6188(9) 0.9081(8) 0.1114(5) 0.330 Uiso 1 1 d GD . .
C25 C 0.6150(11) 0.9528(12) 0.1101(6) 0.347 Uiso 1 1 d GD . .
C35 C 0.6581(14) 0.9995(8) 0.1048(5) 0.355 Uiso 1 1 d GD . .
C45 C 0.7049(11) 1.0015(7) 0.1008(5) 0.342 Uiso 1 1 d GD . .
C55 C 0.7086(9) 0.9568(10) 0.1022(4) 0.312 Uiso 1 1 d GD . .
N1I N 0.6683(8) 0.8462(9) 0.1384(2) 0.300 Uiso 1 1 d D . .
N6 N 0.6751(7) 0.7887(7) 0.1160(3) 0.353 Uiso 1 1 d GD . .
C16 C 0.7077(9) 0.7881(8) 0.1296(4) 0.378 Uiso 1 1 d GD . .
C26 C 0.7086(11) 0.7425(11) 0.1332(4) 0.344 Uiso 1 1 d GD . .
C36 C 0.6768(13) 0.6976(8) 0.1232(6) 0.374 Uiso 1 1 d GD . .
C46 C 0.6442(14) 0.6983(8) 0.1096(6) 0.393 Uiso 1 1 d GD . .
C56 C 0.6434(11) 0.7438(10) 0.1060(4) 0.333 Uiso 1 1 d GD . .
N2I N 0.7446(7) 0.8795(11) 0.1199(3) 0.357 Uiso 1 1 d D . .
N7 N 0.5191(5) 0.4796(10) 0.2488(2) 0.335 Uiso 1 1 d GD . .
C17 C 0.5382(11) 0.5128(9) 0.2337(4) 0.353 Uiso 1 1 d GD . .
C27 C 0.5478(12) 0.4952(13) 0.2173(3) 0.333 Uiso 1 1 d GD . .
C37 C 0.5382(10) 0.4445(15) 0.2159(3) 0.309 Uiso 1 1 d GD . .
C47 C 0.5191(13) 0.4113(11) 0.2309(4) 0.327 Uiso 1 1 d GD . .
C57 C 0.5095(10) 0.4289(9) 0.2474(3) 0.300 Uiso 1 1 d GD . .
N1L N 0.5743(8) 0.5351(8) 0.2846(4) 0.340 Uiso 1 1 d D . .
N8 N 0.4803(8) 0.5149(4) 0.2941(2) 0.275 Uiso 1 1 d GD . .
C18 C 0.5065(8) 0.5176(10) 0.3103(3) 0.313 Uiso 1 1 d GD . .
C28 C 0.4905(11) 0.5284(12) 0.3268(2) 0.325 Uiso 1 1 d GD . .
C38 C 0.4482(11) 0.5364(9) 0.3272(3) 0.314 Uiso 1 1 d GD . .
C48 C 0.4220(10) 0.5337(12) 0.3111(4) 0.343 Uiso 1 1 d GD . .
C58 C 0.4380(10) 0.5229(11) 0.2945(3) 0.317 Uiso 1 1 d GD . .
N2L N 0.5290(9) 0.5746(6) 0.2691(4) 0.306 Uiso 1 1 d D . .
O1 O 0.3333 0.6667 0.1875(8) 0.184 Uiso 1 3 d S . .
O2 O 1.0000 1.0000 0.0233(7) 0.186 Uiso 1 3 d S . .
O1G O 0.4481(7) 0.7321(7) 0.1820(3) 0.136 Uiso 1 1 d D . .
O2G O 0.3957(9) 0.6849(8) 0.1547(4) 0.218 Uiso 1 1 d D . .
O3G O 0.5950(6) 0.8071(8) 0.1090(4) 0.358 Uiso 1 1 d D . .
O1H O 0.9365(8) 0.9579(8) 0.0634(4) 0.184 Uiso 1 1 d D . .
O2H O 0.8852(9) 0.9528(8) 0.0354(3) 0.182 Uiso 1 1 d D . .
O3H O 0.6913(8) 0.8450(8) 0.0863(2) 0.300 Uiso 1 1 d D . .
O1J O 0.6631(8) 0.4149(8) 0.3307(3) 0.183 Uiso 1 1 d D . .
O2J O 0.5794(8) 0.3459(8) 0.3420(3) 0.179 Uiso 1 1 d D . .
O3J O 0.4934(9) 0.4334(7) 0.2798(3) 0.342 Uiso 1 1 d D . .
O1K O 0.4138(8) 0.6593(8) 0.2190(3) 0.169 Uiso 1 1 d D . .
O2K O 0.3429(9) 0.5809(9) 0.2094(3) 0.204 Uiso 1 1 d D . .
O3K O 0.4406(7) 0.4820(9) 0.2615(3) 0.336 Uiso 1 1 d D . .
Ru3 Ru 0.6696(2) 0.84860(19) 0.10945(11) 0.312 Uiso 1 1 d D . .
Ru4 Ru 0.5051(2) 0.4995(2) 0.27107(11) 0.317 Uiso 1 1 d D . .
Zn5 Zn 0.3333 0.6667 0.16633(17) 0.155 Uiso 1 3 d S . .
Zn6 Zn 0.29689(19) 0.59577(19) 0.20131(11) 0.158 Uiso 1 1 d . . .
Zn7 Zn 0.92897(19) 0.96403(18) 0.01700(11) 0.156 Uiso 1 1 d . . .
Zn8 Zn 1.0000 1.0000 0.05293(16) 0.151 Uiso 1 3 d S . .

_geom_special_details            
;
All esds (except the esd in the dihedral angle between two l.s. planes)
are estimated using the full covariance matrix. The cell esds are taken
into account individually in the estimation of esds in distances, angles
and torsion angles; correlations between esds in cell parameters are only
used when they are defined by crystal symmetry. An approximate (isotropic)
treatment of cell esds is used for estimating esds involving l.s. planes.
;

loop_
_geom_bond_atom_site_label_1
_geom_bond_atom_site_label_2
_geom_bond_distance
_geom_bond_site_symmetry_2
_geom_bond_publ_flag
C1G C2G 1.3900 . ?
C1G C6G 1.3900 . ?
C1G C7G 1.534(17) . ?
C2G C3G 1.3900 . ?
C3G C12G 1.396(16) . ?
C3G C4G 1.3900 . ?
C4G C5G 1.3900 . ?
C4G O3G 1.383(16) . ?
C5G C6G 1.3900 . ?
C5G C8G 1.561(17) . ?
C7G O1G 1.355(18) . ?
C7G O2G 1.328(18) . ?
C1H C2H 1.3900 . ?
C1H C6H 1.3900 . ?
C1H C7H 1.556(17) . ?
C2H C3H 1.3900 . ?
C3H C4H 1.3900 . ?
C3H C12H 1.415(16) . ?
C4H C5H 1.3900 . ?
C4H O3H 1.410(15) . ?
C5H C6H 1.3900 . ?
C5H C8H 1.590(16) . ?
C8G C9G 1.386(18) . ?
C8G C11G 1.428(18) . ?
C8G C10G 1.421(18) . ?
C1J C2J 1.3900 . ?
C1J C6J 1.3900 . ?
C1J C7J 1.540(16) . ?
C2J C3J 1.3900 . ?
C3J C4J 1.3900 . ?
C3J C12J 1.423(17) . ?
C4J C5J 1.3900 . ?
C4J O3J 1.401(16) . ?
C5J C6J 1.3900 . ?
C5J C8J 1.546(16) . ?
C7H O2H 1.345(18) . ?
C7H O1H 1.356(18) . ?
C1K C2K 1.3900 . ?
C1K C6K 1.3900 . ?
C1K C7K 1.517(16) . ?
C2K C3K 1.3900 . ?
C3K C12K 1.363(16) . ?
C3K C4K 1.3900 . ?
C4K O3K 1.376(16) . ?
C4K C5K 1.3900 . ?
C5K C6K 1.3900 . ?
C5K C8K 1.548(16) . ?
C12G N1I 1.362(17) . ?
C8H C10H 1.417(18) . ?
C8H C9H 1.414(19) . ?
C8H C11H 1.418(18) . ?
C12H N2I 1.373(17) . ?
C1I N1I 1.388(17) . ?
C1I C6I 1.400(18) . ?
C1I C2I 1.612(18) . ?
C2I C3I 1.490(19) . ?
C3I C4I 1.464(19) . ?
C4I C5I 1.545(19) . ?
C5I C6I 1.625(16) . ?
C6I N2I 1.478(17) . ?
C7J O1J 1.354(17) . ?
C7J O2J 1.347(18) . ?
C8J C11J 1.396(19) . ?
C8J C9J 1.427(18) . ?
C8J C10J 1.401(19) . ?
C12J N1L 1.406(18) . ?
C7K O1K 1.313(17) . ?
C7K O2K 1.335(18) . ?
C8K C11K 1.395(18) . ?
C8K C10K 1.404(19) . ?
C8K C9K 1.422(18) . ?
C12K N2L 1.339(17) . ?
C1L C6L 1.372(18) . ?
C1L N1L 1.395(16) . ?
C1L C2L 1.612(19) . ?
C2L C3L 1.457(18) . ?
C3L C4L 1.443(19) . ?
C4L C5L 1.523(19) . ?
C5L C6L 1.633(16) . ?
C6L N2L 1.428(16) . ?
N5 C15 1.3900 . ?
N5 C55 1.3900 . ?
N5 Ru3 1.892(12) . ?
C15 C25 1.3900 . ?
C25 C35 1.3900 . ?
C35 C45 1.3900 . ?
C45 C55 1.3900 . ?
N1I Ru3 2.104(16) . ?
N6 C16 1.3900 . ?
N6 C56 1.3900 . ?
N6 Ru3 1.923(13) . ?
C16 C26 1.3900 . ?
C26 C36 1.3900 . ?
C36 C46 1.3900 . ?
C46 C56 1.3900 . ?
N2I Ru3 2.079(16) . ?
N7 C17 1.3900 . ?
N7 C57 1.3900 . ?
N7 Ru4 1.841(13) . ?
C17 C27 1.3900 . ?
C27 C37 1.3900 . ?
C37 C47 1.3900 . ?
C47 C57 1.3900 . ?
N1L Ru4 2.034(16) . ?
N8 C18 1.3900 . ?
N8 C58 1.3900 . ?
N8 Ru4 1.972(12) . ?
C18 C28 1.3900 . ?
C28 C38 1.3900 . ?
C38 C48 1.3900 . ?
C48 C58 1.3900 . ?
N2L Ru4 1.979(15) . ?
O1 Zn5 1.54(5) . ?
O1 Zn6 2.08(3) 3_565 ?
O1 Zn6 2.08(3) 2_665 ?
O1 Zn6 2.08(3) . ?
O2 Zn7 1.882(13) . ?
O2 Zn7 1.882(13) 3_675 ?
O2 Zn7 1.882(13) 2_765 ?
O2 Zn8 2.16(5) . ?
O1G Zn6 1.822(19) 2_665 ?
O2G Zn5 1.85(3) . ?
O3G Ru3 1.923(14) . ?
O1H Zn8 1.83(2) . ?
O2H Zn7 1.78(2) . ?
O3H Ru3 1.824(15) . ?
O1J Zn7 1.95(2) 6_565 ?
O2J Zn7 1.84(2) 4_445 ?
O3J Ru4 1.923(15) . ?
O1K Zn6 1.91(2) 2_665 ?
O2K Zn6 1.73(2) . ?
O3K Ru4 1.850(14) . ?
Zn5 O2G 1.85(3) 2_665 ?
Zn5 O2G 1.85(3) 3_565 ?
Zn5 Zn6 3.128(11) 3_565 ?
Zn5 Zn6 3.128(11) 2_665 ?
Zn5 Zn6 3.128(11) . ?
Zn6 O1G 1.822(19) 3_565 ?
Zn6 O1K 1.91(2) 3_565 ?
Zn6 Zn6 3.157(9) 2_665 ?
Zn6 Zn6 3.157(8) 3_565 ?
Zn7 O2J 1.84(2) 7_554 ?
Zn7 O1J 1.95(2) 8_654 ?
Zn7 Zn7 3.163(8) 3_675 ?
Zn7 Zn7 3.163(8) 2_765 ?
Zn7 Zn8 3.186(9) . ?
Zn8 O1H 1.83(2) 3_675 ?
Zn8 O1H 1.83(2) 2_765 ?
Zn8 Zn7 3.186(9) 2_765 ?
Zn8 Zn7 3.186(9) 3_675 ?

loop_
_geom_angle_atom_site_label_1
_geom_angle_atom_site_label_2
_geom_angle_atom_site_label_3
_geom_angle
_geom_angle_site_symmetry_1
_geom_angle_site_symmetry_3
_geom_angle_publ_flag
C2G C1G C6G 120.0 . . ?
C2G C1G C7G 121.9(15) . . ?
C6G C1G C7G 118.1(15) . . ?
C3G C2G C1G 120.0 . . ?
C12G C3G C4G 124.7(16) . . ?
C12G C3G C2G 115.2(16) . . ?
C4G C3G C2G 120.0 . . ?
C5G C4G C3G 120.0 . . ?
C5G C4G O3G 118.7(16) . . ?
C3G C4G O3G 121.2(16) . . ?
C6G C5G C4G 120.0 . . ?
C6G C5G C8G 123.3(15) . . ?
C4G C5G C8G 116.7(15) . . ?
C5G C6G C1G 120.0 . . ?
O1G C7G O2G 135(3) . . ?
O1G C7G C1G 120(2) . . ?
O2G C7G C1G 105.0(19) . . ?
C2H C1H C6H 120.0 . . ?
C2H C1H C7H 119.5(14) . . ?
C6H C1H C7H 120.5(14) . . ?
C3H C2H C1H 120.0 . . ?
C2H C3H C4H 120.0 . . ?
C2H C3H C12H 114.5(16) . . ?
C4H C3H C12H 125.5(15) . . ?
C5H C4H C3H 120.0 . . ?
C5H C4H O3H 115.7(16) . . ?
C3H C4H O3H 124.3(16) . . ?
C6H C5H C4H 120.0 . . ?
C6H C5H C8H 123.7(15) . . ?
C4H C5H C8H 116.3(15) . . ?
C5H C6H C1H 120.0 . . ?
C9G C8G C11G 108(2) . . ?
C9G C8G C10G 115(3) . . ?
C11G C8G C10G 108(2) . . ?
C9G C8G C5G 111(2) . . ?
C11G C8G C5G 111(2) . . ?
C10G C8G C5G 103(2) . . ?
C2J C1J C6J 120.0 . . ?
C2J C1J C7J 122.0