####################################################################### 
# 
# This file contains crystal structure data downloaded from the 
# Cambridge Structural Database (CSD) hosted by the Cambridge 
# Crystallographic Data Centre (CCDC).
# 
# Full information about CCDC data access policies and citation 
# guidelines are available at http://www.ccdc.cam.ac.uk/access/V1 
# 
# Audit and citation data items may have been added by the CCDC. 
# Please retain this information to preserve the provenance of 
# this file and to allow appropriate attribution of the data. 
# 
#######################################################################

data_4
_audit_block_doi                 10.5517/ccwd7n4
_database_code_depnum_ccdc_archive 'CCDC 816126'
loop_
_citation_id
_citation_doi
_citation_year
1 10.1002/anie.201104086 2011
_audit_update_record             
;
2011-03-06 deposited with the CCDC.	2024-07-10 downloaded from the CCDC.
;
#TrackingRef 'web_deposit_cif_file_3_ChengWang_1299448030.cif'


_audit_creation_method           SHELXL-97
_chemical_name_systematic        
;
?
;
_chemical_name_common            ?
_chemical_melting_point          ?
_chemical_formula_moiety         ?
_chemical_formula_sum            'C240 N24 O38 Ru6 Zn8'
_chemical_formula_weight         4956.02

loop_
_atom_type_symbol
_atom_type_description
_atom_type_scat_dispersion_real
_atom_type_scat_dispersion_imag
_atom_type_scat_source
C C 0.0181 0.0091 'International Tables Vol C Tables 4.2.6.8 and 6.1.1.4'
N N 0.0311 0.0180 'International Tables Vol C Tables 4.2.6.8 and 6.1.1.4'
O O 0.0492 0.0322 'International Tables Vol C Tables 4.2.6.8 and 6.1.1.4'
Ru Ru 0.0552 3.2960 'International Tables Vol C Tables 4.2.6.8 and 6.1.1.4'
Zn Zn -1.5491 0.6778 'International Tables Vol C Tables 4.2.6.8 and 6.1.1.4'

_symmetry_cell_setting           Trigonal
_symmetry_space_group_name_H-M   R3

loop_
_symmetry_equiv_pos_as_xyz
'x, y, z'
'-y, x-y, z'
'-x+y, -x, z'
'x+2/3, y+1/3, z+1/3'
'-y+2/3, x-y+1/3, z+1/3'
'-x+y+2/3, -x+1/3, z+1/3'
'x+1/3, y+2/3, z+2/3'
'-y+1/3, x-y+2/3, z+2/3'
'-x+y+1/3, -x+2/3, z+2/3'

_cell_length_a                   29.7243(3)
_cell_length_b                   29.7243(3)
_cell_length_c                   72.861(2)
_cell_angle_alpha                90.00
_cell_angle_beta                 90.00
_cell_angle_gamma                120.00
_cell_volume                     55750.8(17)
_cell_formula_units_Z            3
_cell_measurement_temperature    296(2)
_cell_measurement_reflns_used    ?
_cell_measurement_theta_min      ?
_cell_measurement_theta_max      ?

_exptl_crystal_description       Cube
_exptl_crystal_colour            dark_red
_exptl_crystal_size_max          0.23
_exptl_crystal_size_mid          0.22
_exptl_crystal_size_min          0.18
_exptl_crystal_density_meas      ?
_exptl_crystal_density_diffrn    0.443
_exptl_crystal_density_method    'not measured'
_exptl_crystal_F_000             7248
_exptl_absorpt_coefficient_mu    1.424
_exptl_absorpt_correction_type   numerical
_exptl_absorpt_correction_T_min  0.7391
_exptl_absorpt_correction_T_max  0.7836
_exptl_absorpt_process_details   SADABS

_exptl_special_details           
;
?
;

_diffrn_ambient_temperature      296(2)
_diffrn_radiation_wavelength     1.54178
_diffrn_radiation_type           CuK\a
_diffrn_radiation_source         'fine-focus sealed tube'
_diffrn_radiation_monochromator  graphite
_diffrn_measurement_device_type  ?
_diffrn_measurement_method       ?
_diffrn_detector_area_resol_mean ?
_diffrn_standards_number         ?
_diffrn_standards_interval_count ?
_diffrn_standards_interval_time  ?
_diffrn_standards_decay_%        ?
_diffrn_reflns_number            4729
_diffrn_reflns_av_R_equivalents  0.1141
_diffrn_reflns_av_sigmaI/netI    0.2701
_diffrn_reflns_limit_h_min       -16
_diffrn_reflns_limit_h_max       17
_diffrn_reflns_limit_k_min       -18
_diffrn_reflns_limit_k_max       11
_diffrn_reflns_limit_l_min       -48
_diffrn_reflns_limit_l_max       45
_diffrn_reflns_theta_min         1.82
_diffrn_reflns_theta_max         31.05
_reflns_number_total             2142
_reflns_number_gt                724
_reflns_threshold_expression     >2sigma(I)

_computing_data_collection       ?
_computing_cell_refinement       ?
_computing_data_reduction        ?
_computing_structure_solution    'SHELXS-97 (Sheldrick, 1990)'
_computing_structure_refinement  'SHELXL-97 (Sheldrick, 1997)'
_computing_molecular_graphics    ?
_computing_publication_material  ?

_refine_special_details          
;
Refinement of F^2^ against ALL reflections. The weighted R-factor wR and
goodness of fit S are based on F^2^, conventional R-factors R are based
on F, with F set to zero for negative F^2^. The threshold expression of
F^2^ > 2sigma(F^2^) is used only for calculating R-factors(gt) etc. and is
not relevant to the choice of reflections for refinement. R-factors based
on F^2^ are statistically about twice as large as those based on F, and R-
factors based on ALL data will be even larger.
;

_refine_ls_structure_factor_coef Fsqd
_refine_ls_matrix_type           full
_refine_ls_weighting_scheme      calc
_refine_ls_weighting_details     
'calc w=1/[\s^2^(Fo^2^)+(0.2000P)^2^+0.0000P] where P=(Fo^2^+2Fc^2^)/3'
_atom_sites_solution_primary     direct
_atom_sites_solution_secondary   difmap
_atom_sites_solution_hydrogens   none
_refine_ls_hydrogen_treatment    none
_refine_ls_extinction_method     none
_refine_ls_extinction_coef       ?
_refine_ls_abs_structure_details 'Flack H D (1983), Acta Cryst. A39, 876-881'
_refine_ls_abs_structure_Flack   0.30(12)
_refine_ls_number_reflns         2142
_refine_ls_number_parameters     188
_refine_ls_number_restraints     280
_refine_ls_R_factor_all          0.2630
_refine_ls_R_factor_gt           0.1711
_refine_ls_wR_factor_ref         0.4198
_refine_ls_wR_factor_gt          0.3834
_refine_ls_goodness_of_fit_ref   1.038
_refine_ls_restrained_S_all      1.048
_refine_ls_shift/su_max          0.004
_refine_ls_shift/su_mean         0.001

loop_
_atom_site_label
_atom_site_type_symbol
_atom_site_fract_x
_atom_site_fract_y
_atom_site_fract_z
_atom_site_U_iso_or_equiv
_atom_site_adp_type
_atom_site_occupancy
_atom_site_symmetry_multiplicity
_atom_site_calc_flag
_atom_site_refinement_flags
_atom_site_disorder_assembly
_atom_site_disorder_group
C1G C 0.4847(10) 0.7439(6) 0.1493(4) 0.334 Uiso 1 1 d GD . .
C2G C 0.5371(11) 0.7714(11) 0.1540(4) 0.300 Uiso 1 1 d GD . .
C3G C 0.5746(9) 0.7928(12) 0.1403(4) 0.318 Uiso 1 1 d GD . .
C4G C 0.5597(11) 0.7868(11) 0.1219(4) 0.366 Uiso 1 1 d GD . .
C5G C 0.5074(11) 0.7593(13) 0.1173(4) 0.364 Uiso 1 1 d GD . .
C6G C 0.4699(9) 0.7379(10) 0.1310(4) 0.373 Uiso 1 1 d GD . .
C7G C 0.4415(8) 0.7190(6) 0.1640(2) 0.252 Uiso 1 1 d D . .
C1H C 0.8415(9) 0.9212(7) 0.0623(4) 0.314 Uiso 1 1 d GD . .
C2H C 0.8362(10) 0.9185(12) 0.0813(4) 0.328 Uiso 1 1 d GD . .
C3H C 0.7871(11) 0.8932(14) 0.0892(4) 0.308 Uiso 1 1 d GD . .
C4H C 0.7432(10) 0.8706(12) 0.0781(4) 0.304 Uiso 1 1 d GD . .
C5H C 0.7485(10) 0.8734(13) 0.0591(4) 0.336 Uiso 1 1 d GD . .
C6H C 0.7976(11) 0.8987(12) 0.0512(4) 0.291 Uiso 1 1 d GD . .
C8G C 0.4913(19) 0.754(2) 0.0967(5) 0.300 Uiso 1 1 d D . .
C1J C 0.5773(12) 0.3990(12) 0.3170(2) 0.351 Uiso 1 1 d GD . .
C2J C 0.5998(11) 0.4454(11) 0.3072(4) 0.322 Uiso 1 1 d GD . .
C3J C 0.5699(13) 0.4556(11) 0.2951(4) 0.342 Uiso 1 1 d GD . .
C4J C 0.5176(13) 0.4194(12) 0.2927(4) 0.295 Uiso 1 1 d GD . .
C5J C 0.4951(11) 0.3731(12) 0.3025(4) 0.328 Uiso 1 1 d GD . .
C6J C 0.5250(12) 0.3628(11) 0.3146(3) 0.380 Uiso 1 1 d GD . .
C7H C 0.8957(8) 0.9491(6) 0.0529(3) 0.257 Uiso 1 1 d D . .
C1K C 0.4009(11) 0.5751(11) 0.2296(2) 0.305 Uiso 1 1 d GD . .
C2K C 0.4482(11) 0.5970(10) 0.2387(3) 0.344 Uiso 1 1 d GD . .
C3K C 0.4616(11) 0.5656(12) 0.2488(4) 0.355 Uiso 1 1 d GD . .
C4K C 0.4276(12) 0.5123(11) 0.2497(4) 0.310 Uiso 1 1 d GD . .
C5K C 0.3802(12) 0.4904(10) 0.2405(4) 0.338 Uiso 1 1 d GD . .
C6K C 0.3669(10) 0.5218(12) 0.2305(3) 0.308 Uiso 1 1 d GD . .
C9G C 0.5136(17) 0.803(2) 0.0886(9) 0.320 Uiso 1 1 d D . .
C10G C 0.510(4) 0.725(4) 0.0874(8) 0.313 Uiso 1 1 d D . .
C11G C 0.4372(19) 0.728(3) 0.0952(10) 0.390 Uiso 1 1 d D . .
C12G C 0.6252(10) 0.8194(19) 0.1469(5) 0.336 Uiso 1 1 d D . .
C8H C 0.6983(14) 0.848(2) 0.0472(6) 0.350 Uiso 1 1 d D . .
C9H C 0.709(3) 0.857(4) 0.0284(6) 0.361 Uiso 1 1 d D . .
C10H C 0.671(3) 0.794(2) 0.0507(13) 0.312 Uiso 1 1 d D . .
C11H C 0.667(2) 0.869(3) 0.0518(6) 0.254 Uiso 1 1 d D . .
C12H C 0.7880(12) 0.894(2) 0.1085(4) 0.362 Uiso 1 1 d D . .
C1I C 0.7075(14) 0.8945(18) 0.1454(4) 0.315 Uiso 1 1 d D . .
C2I C 0.716(2) 0.907(3) 0.1666(5) 0.324 Uiso 1 1 d D . .
C3I C 0.758(3) 0.958(3) 0.1719(8) 0.320 Uiso 1 1 d D . .
C4I C 0.799(3) 0.986(2) 0.1585(9) 0.323 Uiso 1 1 d D . .
C5I C 0.8087(15) 0.957(3) 0.1430(9) 0.311 Uiso 1 1 d D . .
C6I C 0.7528(12) 0.9104(13) 0.1356(4) 0.300 Uiso 1 1 d D . .
C7J C 0.6087(7) 0.3861(6) 0.3305(2) 0.250 Uiso 1 1 d D . .
C8J C 0.4364(13) 0.3330(16) 0.3001(6) 0.307 Uiso 1 1 d D . .
C9J C 0.424(3) 0.288(2) 0.3103(10) 0.325 Uiso 1 1 d D . .
C10J C 0.427(3) 0.3220(13) 0.2814(7) 0.356 Uiso 1 1 d D . .
C11J C 0.409(2) 0.356(3) 0.3072(13) 0.316 Uiso 1 1 d D . .
C12J C 0.5966(13) 0.5043(14) 0.2862(7) 0.373 Uiso 1 1 d D . .
C7K C 0.3857(6) 0.6086(7) 0.2185(2) 0.259 Uiso 1 1 d D . .
C8K C 0.3427(17) 0.4311(12) 0.2419(6) 0.301 Uiso 1 1 d D . .
C9K C 0.299(2) 0.419(3) 0.2313(9) 0.290 Uiso 1 1 d D . .
C10K C 0.3303(13) 0.422(3) 0.2607(7) 0.289 Uiso 1 1 d D . .
C11K C 0.368(3) 0.406(2) 0.2352(14) 0.379 Uiso 1 1 d D . .
C12K C 0.5102(13) 0.5953(12) 0.2567(5) 0.309 Uiso 1 1 d D . .
C1L C 0.6006(11) 0.5858(11) 0.2850(6) 0.354 Uiso 1 1 d D . .
C2L C 0.639(3) 0.613(2) 0.3019(11) 0.348 Uiso 1 1 d D . .
C3L C 0.660(3) 0.6690(19) 0.3044(11) 0.368 Uiso 1 1 d D . .
C4L C 0.632(4) 0.6926(17) 0.2964(12) 0.399 Uiso 1 1 d D . .
C5L C 0.597(3) 0.6696(10) 0.2798(11) 0.379 Uiso 1 1 d D . .
C6L C 0.5677(15) 0.6056(9) 0.2816(6) 0.359 Uiso 1 1 d D . .
N5 N 0.6720(14) 0.9087(9) 0.1071(3) 0.308 Uiso 1 1 d GD . .
C15 C 0.6276(15) 0.9104(13) 0.1119(7) 0.330 Uiso 1 1 d GD . .
C25 C 0.627(2) 0.9563(17) 0.1099(8) 0.347 Uiso 1 1 d GD . .
C35 C 0.670(2) 1.0006(12) 0.1033(6) 0.355 Uiso 1 1 d GD . .
C45 C 0.7143(19) 0.9989(11) 0.0985(7) 0.342 Uiso 1 1 d GD . .
C55 C 0.7154(15) 0.9529(13) 0.1005(6) 0.312 Uiso 1 1 d GD . .
N1I N 0.6718(11) 0.8458(13) 0.1383(3) 0.300 Uiso 1 1 d D . .
N6 N 0.6758(12) 0.7843(10) 0.1155(4) 0.353 Uiso 1 1 d GD . .
C16 C 0.7065(18) 0.7850(15) 0.1300(6) 0.378 Uiso 1 1 d GD . .
C26 C 0.709(2) 0.741(2) 0.1343(7) 0.344 Uiso 1 1 d GD . .
C36 C 0.680(3) 0.6954(15) 0.1241(8) 0.374 Uiso 1 1 d GD . .
C46 C 0.649(3) 0.6947(13) 0.1096(9) 0.393 Uiso 1 1 d GD . .
C56 C 0.647(2) 0.7392(14) 0.1053(7) 0.333 Uiso 1 1 d GD . .
N2I N 0.7469(9) 0.8785(15) 0.1199(4) 0.357 Uiso 1 1 d D . .
N7 N 0.5194(10) 0.4783(14) 0.2494(3) 0.335 Uiso 1 1 d GD . .
C17 C 0.540(3) 0.514(2) 0.2350(6) 0.353 Uiso 1 1 d GD . .
C27 C 0.553(3) 0.499(3) 0.2186(5) 0.333 Uiso 1 1 d GD . .
C37 C 0.545(2) 0.449(4) 0.2165(6) 0.309 Uiso 1 1 d GD . .
C47 C 0.524(3) 0.414(3) 0.2309(9) 0.327 Uiso 1 1 d GD . .
C57 C 0.512(3) 0.4284(17) 0.2473(7) 0.300 Uiso 1 1 d GD . .
N1L N 0.5718(11) 0.5328(11) 0.2849(6) 0.340 Uiso 1 1 d D . .
N8 N 0.4798(11) 0.5158(8) 0.2940(3) 0.275 Uiso 1 1 d GD . .
C18 C 0.4996(15) 0.5102(14) 0.3106(4) 0.313 Uiso 1 1 d GD . .
C28 C 0.4841(18) 0.5225(17) 0.3269(3) 0.325 Uiso 1 1 d GD . .
C38 C 0.4489(18) 0.5403(17) 0.3267(4) 0.314 Uiso 1 1 d GD . .
C48 C 0.4291(19) 0.546(2) 0.3101(5) 0.343 Uiso 1 1 d GD . .
C58 C 0.4446(16) 0.5337(18) 0.2938(4) 0.317 Uiso 1 1 d GD . .
N2L N 0.5334(12) 0.5749(9) 0.2667(5) 0.306 Uiso 1 1 d D . .
O3G O 0.5985(8) 0.8107(13) 0.1079(4) 0.358 Uiso 1 1 d D . .
O3H O 0.6925(11) 0.8447(13) 0.0858(3) 0.300 Uiso 1 1 d D . .
O3J O 0.4872(13) 0.4302(10) 0.2802(4) 0.342 Uiso 1 1 d D . .
O3K O 0.4387(10) 0.4795(12) 0.2604(4) 0.336 Uiso 1 1 d D . .
Ru4 Ru 0.5021(7) 0.4985(7) 0.2717(2) 0.317 Uiso 1 1 d D . .
O1 O 0.3333 0.6667 0.1872 0.184 Uiso 1 3 d S . .
Zn5 Zn 0.3333 0.6667 0.1661 0.155 Uiso 1 3 d S . .
Zn6 Zn 0.2975 0.5963 0.2011 0.158 Uiso 1 1 d . . .
O1G O 0.4496 0.7343 0.1819 0.136 Uiso 1 1 d D . .
O2G O 0.3974 0.6819 0.1558 0.218 Uiso 1 1 d D . .
O1K O 0.4142 0.6608 0.2194 0.169 Uiso 1 1 d D . .
O2K O 0.3422 0.5786 0.2088 0.204 Uiso 1 1 d D . .
Ru3 Ru 0.6734(6) 0.8456(6) 0.1098(2) 0.312 Uiso 1 1 d D . .
O2 O 1.0000 1.0000 0.0215 0.186 Uiso 1 3 d S . .
Zn7 Zn 0.9296 0.9645 0.0171 0.156 Uiso 1 1 d . . .
Zn8 Zn 1.0000 1.0000 0.0526 0.151 Uiso 1 3 d S . .
O1H O 0.9384 0.9595 0.0634 0.184 Uiso 1 1 d D . .
O2H O 0.8851 0.9563 0.0351 0.182 Uiso 1 1 d D . .
O1J O 0.6618 0.4133 0.3306 0.183 Uiso 1 1 d D . .
O2J O 0.5795 0.3457 0.3417 0.179 Uiso 1 1 d D . .

_geom_special_details            
;
All esds (except the esd in the dihedral angle between two l.s. planes)
are estimated using the full covariance matrix. The cell esds are taken
into account individually in the estimation of esds in distances, angles
and torsion angles; correlations between esds in cell parameters are only
used when they are defined by crystal symmetry. An approximate (isotropic)
treatment of cell esds is used for estimating esds involving l.s. planes.
;

loop_
_geom_bond_atom_site_label_1
_geom_bond_atom_site_label_2
_geom_bond_distance
_geom_bond_site_symmetry_2
_geom_bond_publ_flag
C1G C2G 1.3900 . ?
C1G C6G 1.3900 . ?
C1G C7G 1.549(16) . ?
C2G C3G 1.3900 . ?
C3G C4G 1.3900 . ?
C3G C12G 1.390(17) . ?
C4G C5G 1.3900 . ?
C4G O3G 1.435(17) . ?
C5G C6G 1.3900 . ?
C5G C8G 1.555(17) . ?
C7G O1G 1.359(17) . ?
C7G O2G 1.359(18) . ?
C1H C2H 1.3900 . ?
C1H C6H 1.3900 . ?
C1H C7H 1.552(17) . ?
C2H C3H 1.3900 . ?
C3H C4H 1.3900 . ?
C3H C12H 1.408(17) . ?
C4H C5H 1.3900 . ?
C4H O3H 1.422(17) . ?
C5H C6H 1.3900 . ?
C5H C8H 1.554(17) . ?
C8G C9G 1.403(19) . ?
C8G C11G 1.398(19) . ?
C8G C10G 1.40(2) . ?
C1J C2J 1.3900 . ?
C1J C6J 1.3900 . ?
C1J C7J 1.528(16) . ?
C2J C3J 1.3900 . ?
C3J C4J 1.3900 . ?
C3J C12J 1.413(18) . ?
C4J C5J 1.3900 . ?
C4J O3J 1.429(17) . ?
C5J C6J 1.3900 . ?
C5J C8J 1.555(17) . ?
C7H O2H 1.380(17) . ?
C7H O1H 1.377(17) . ?
C1K C2K 1.3900 . ?
C1K C6K 1.3900 . ?
C1K C7K 1.518(16) . ?
C2K C3K 1.3900 . ?
C3K C12K 1.387(17) . ?
C3K C4K 1.3900 . ?
C4K O3K 1.412(17) . ?
C4K C5K 1.3900 . ?
C5K C6K 1.3900 . ?
C5K C8K 1.549(17) . ?
C12G N1I 1.353(18) . ?
C8H C10H 1.40(2) . ?
C8H C9H 1.401(19) . ?
C8H C11H 1.41(2) . ?
C12H N2I 1.353(18) . ?
C1I N1I 1.395(19) . ?
C1I C6I 1.382(19) . ?
C1I C2I 1.581(19) . ?
C2I C3I 1.47(2) . ?
C3I C4I 1.44(2) . ?
C4I C5I 1.53(2) . ?
C5I C6I 1.633(17) . ?
C6I N2I 1.441(17) . ?
C7J O1J 1.367(18) . ?
C7J O2J 1.351(18) . ?
C8J C11J 1.40(2) . ?
C8J C9J 1.401(19) . ?
C8J C10J 1.400(19) . ?
C12J N1L 1.375(18) . ?
C7K O1K 1.347(17) . ?
C7K O2K 1.347(18) . ?
C8K C11K 1.396(19) . ?
C8K C10K 1.409(19) . ?
C8K C9K 1.396(19) . ?
C12K N2L 1.341(18) . ?
C1L C6L 1.394(19) . ?
C1L N1L 1.368(17) . ?
C1L C2L 1.59(2) . ?
C2L C3L 1.457(19) . ?
C3L C4L 1.44(2) . ?
C4L C5L 1.53(2) . ?
C5L C6L 1.655(19) . ?
C6L N2L 1.454(18) . ?
N5 C15 1.3900 . ?
N5 C55 1.3900 . ?
N5 Ru3 1.905(14) . ?
C15 C25 1.3900 . ?
C25 C35 1.3900 . ?
C35 C45 1.3900 . ?
C45 C55 1.3900 . ?
N1I Ru3 2.077(17) . ?
N6 C16 1.3900 . ?
N6 C56 1.3900 . ?
N6 Ru3 1.904(15) . ?
C16 C26 1.3900 . ?
C26 C36 1.3900 . ?
C36 C46 1.3900 . ?
C46 C56 1.3900 . ?
N2I Ru3 2.032(17) . ?
N7 C17 1.3900 . ?
N7 C57 1.3900 . ?
N7 Ru4 1.888(15) . ?
C17 C27 1.3900 . ?
C27 C37 1.3900 . ?
C37 C47 1.3900 . ?
C47 C57 1.3900 . ?
N1L Ru4 2.038(17) . ?
N8 C18 1.3900 . ?
N8 C58 1.3900 . ?
N8 Ru4 1.921(14) . ?
C18 C28 1.3900 . ?
C28 C38 1.3900 . ?
C38 C48 1.3900 . ?
C48 C58 1.3900 . ?
N2L Ru4 2.009(17) . ?
O3G Ru3 1.936(17) . ?
O3H Ru3 1.847(17) . ?
O3J Ru4 1.949(17) . ?
O3K Ru4 1.866(17) . ?
O1 Zn5 1.5362 . ?
O1 Zn6 2.0785 3_565 ?
O1 Zn6 2.0785 2_665 ?
O1 Zn6 2.0785 . ?
Zn5 O2G 1.8765 2_665 ?
Zn5 O2G 1.8766 3_565 ?
Zn5 O2G 1.8766 . ?
Zn5 Zn6 3.1314 3_565 ?
Zn5 Zn6 3.1314 2_665 ?
Zn5 Zn6 3.1314 . ?
Zn6 O2K 1.7449 . ?
Zn6 O1G 1.8570 3_565 ?
Zn6 O1K 1.9209 3_565 ?
Zn6 Zn6 3.1393 2_665 ?
Zn6 Zn6 3.1393 3_565 ?
O1G Zn6 1.8570 2_665 ?
O1K Zn6 1.9209 2_665 ?
O2 Zn7 1.8390 . ?
O2 Zn7 1.8390 3_675 ?
O2 Zn7 1.8390 2_765 ?
O2 Zn8 2.2648 . ?
Zn7 O2H 1.7911 . ?
Zn7 O2J 1.8412 7_554 ?
Zn7 O1J 1.9727 8_654 ?
Zn7 Zn7 3.1368 3_675 ?
Zn7 Zn7 3.1368 2_765 ?
Zn7 Zn8 3.1557 . ?
Zn8 O1H 1.7953 3_675 ?
Zn8 O1H 1.7953 . ?
Zn8 O1H 1.7953 2_765 ?
Zn8 Zn7 3.1557 2_765 ?
Zn8 Zn7 3.1557 3_675 ?
O1J Zn7 1.9725 6_565 ?
O2J Zn7 1.8412 4_445 ?

loop_
_geom_angle_atom_site_label_1
_geom_angle_atom_site_label_2
_geom_angle_atom_site_label_3
_geom_angle
_geom_angle_site_symmetry_1
_geom_angle_site_symmetry_3
_geom_angle_publ_flag
C2G C1G C6G 120.0 . . ?
C2G C1G C7G 122.0(16) . . ?
C6G C1G C7G 118.0(16) . . ?
C3G C2G C1G 120.0 . . ?
C2G C3G C4G 120.0 . . ?
C2G C3G C12G 114.0(17) . . ?
C4G C3G C12G 126.0(17) . . ?
C5G C4G C3G 120.0 . . ?
C5G C4G O3G 120.2(18) . . ?
C3G C4G O3G 119.8(18) . . ?
C4G C5G C6G 120.0 . . ?
C4G C5G C8G 119.4(17) . . ?
C6G C5G C8G 120.5(17) . . ?
C5G C6G C1G 120.0 . . ?
O1G C7G O2G 129.1(17) . . ?
O1G C7G C1G 122.4(17) . . ?
O2G C7G C1G 108.4(14) . . ?
C2H C1H C6H 120.0 . . ?
C2H C1H C7H 121.7(16) . . ?
C6H C1H C7H 118.3(16) . . ?
C1H C2H C3H 120.0 . . ?
C4H C3H C2H 120.0 . . ?
C4H C3H C12H 126.6(17) . . ?
C2H C3H C12H 113.4(17) . . ?
C3H C4H C5H 120.0 . . ?
C3H C4H O3H 121.0(18) . . ?
C5H C4H O3H 119.0(18) . . ?
C6H C5H C4H 120.0 . . ?
C6H C5H C8H 121.8(17) . . ?
C4H C5H C8H 118.2(17) . . ?
C5H C6H C1H 120.0 . . ?
C9G C8G C11G 110(3) . . ?
C9G C8G C10G 108(3) . . ?
C11G C8G C10G 109(3) . . ?
C9G C8G C5G 109(2) . . ?
C11G C8G C5G 110(3) . . ?
C10G C8G C5G 110(3) . . ?
C2J C1J C6J 120.0 . . ?
C2J C1J C7J 121.7(17) . . ?
C6J C1J C7J 118.3(17) . . ?
C1J C2J C3J 120.0 . . ?
C4J C3J C2J 120.0 . . ?
C4J C3J C12J 124.9(18) . . ?
C2J C3J C12J 115.1(18) . . ?
C3J C4J C5J 120.0 . . ?
C3J C4J O3J 119.7(18) . . ?
C5J C4J O3J 120.3(18) . . ?
C6J C5J C4J 120.0 . . ?
C6J C5J C8J 119.9(17) . . ?
C4J C5J C8J 120.1(17) . . ?
C5J C6J C1J 120.0 . . ?
O2H C7H O1H 138.0(19) . . ?
O2H C7H C1H 103.9(15) . . ?
O1H C7H C1H 118.1(17) . . ?
C2K C1K C6K 120.0 . . ?
C2K C1K C7K 120.8(16) . . ?
C6K C1K C7K 119.2(16) . . ?
C3K C2K C1K 120.0 . . ?
C12K C3K C2K 110.4(17) . . ?
C12K C3K C4K 129.6(17) . . ?
C2K C3K C4K 120.0 . . ?
O3K C4K C5K 118.3(17) . . ?
O3K C4K C3K 121.7(17) . . ?
C5K C4K C3K 120.0 . . ?
C4K C5K C6K 120.0 . . ?
C4K C5K C8K 119.0(17) . . ?
C6K C5K C8K 121.0(17) . . ?
C5K C6K C1K 120.0 . . ?
N1I C12G C3G 132(2) . . ?
C10H C8H C9H 110(3) . . ?
C10H C8H C11H 110(3) . . ?
C9H C8H C11H 107(3) . . ?
C10H C8H C5H 108(3) . . ?
C9H C8H C5H 112(3) . . ?
C11H C8H C5H 110(2) . . ?
N2I C12H C3H 127(2) . . ?
N1I C1I C6I 106(2) . . ?
N1I C1I C2I 123(3) . . ?
C6I C1I C2I 114(2) . . ?
C3I C2I C1I 117(2) . . ?
C4I C3I C2I 117(2) . . ?
C3I C4I C5I 121(3) . . ?
C4I C5I C6I 109(2) . . ?
N2I C6I C1I 114.0(15) . . ?
N2I C6I C5I 124.0(19) . . ?
C1I C6I C5I 121.6(17) . . ?
O1J C7J O2J 123.9(16) . . ?
O1J C7J C1J 121.9(17) . . ?
O2J C7J C1J 114.2(16) . . ?
C11J C8J C9J 109(3) . . ?
C11J C8J C10J 112(3) . . ?
C9J C8J C10J 112(3) . . ?
C11J C8J C5J 107(3) . . ?
C9J C8J C5J 109(3) . . ?
C10J C8J C5J 108(2) . . ?
N1L C12J C3J 118(2) . . ?
O1K C7K O2K 129.3(17) . . ?
O1K C7K C1K 120.4(17) . . ?
O2K C7K C1K 110.3(15) . . ?
C11K C8K C10K 113(3) . . ?
C11K C8K C9K 110(3) . . ?
C10K C8K C9K 112(3) . . ?
C11K C8K C5K 108(3) . . ?
C10K C8K C5K 105(2) . . ?
C9K C8K C5K 108(3) . . ?
N2L C12K C3K 123(2) . . ?
C6L C1L N1L 108.5(14) . . ?
C6L C1L C2L 113(2) . . ?
N1L C1L C2L 118(2) . . ?
C3L C2L C1L 118(3) . . ?
C4L C3L C2L 118(3) . . ?
C3L C4L C5L 122(3) . . ?
C4L C5L C6L 107(2) . . ?
C1L C6L N2L 107(2) . . ?
C1L C6L C5L 115(3) . . ?
N2L C6L C5L 118(2) . . ?
C15 N5 C55 120.0 . . ?
C15 N5 Ru3 119.9(17) . . ?
C55 N5 Ru3 120.1(17) . . ?
C25 C15 N5 120.0 . . ?
C15 C25 C35 120.0 . . ?
C25 C35 C45 120.0 . . ?
C55 C45 C35 120.0 . . ?
C45 C55 N5 120.0 . . ?
C12G N1I C1I 117(2) . . ?
C12G N1I Ru3 118.3(18) . . ?
C1I N1I Ru3 111.3(15) . . ?
C16 N6 C56 120.0 . . ?
C16 N6 Ru3 119.3(17) . . ?
C56 N6 Ru3 120.7(17) . . ?
N6 C16 C26 120.0 . . ?
C36 C26 C16 120.0 . . ?
C26 C36 C46 120.0 . . ?
C36 C46 C56 120.0 . . ?
C46 C56 N6 120.0 . . ?
C12H N2I C6I 118(2) . . ?
C12H N2I Ru3 121.0(19) . . ?
C6I N2I Ru3 110.5(14) . . ?
C17 N7 C57 120.0 . . ?
C17 N7 Ru4 120(2) . . ?
C57 N7 Ru4 120(2) . . ?
C27 C17 N7 120.0 . . ?
C17 C27 C37 120.0 . . ?
C47 C37 C27 120.0 . . ?
C57 C47 C37 120.0 . . ?
C47 C57 N7 120.0 . . ?
C12J N1L C1L 119(2) . . ?
C12J N1L Ru4 116.6(19) . . ?
C1L N1L Ru4 118.3(15) . . ?
C18 N8 C58 120.0 . . ?
C18 N8 Ru4 118.7(15) . . ?
C58 N8 Ru4 121.3(15) . . ?
C28 C18 N8 120.0 . . ?
C38 C28 C18 120.0 . . ?
C28 C38 C48 120.0 . . ?
C58 C48 C38 120.0 . . ?
C48 C58 N8 120.0 . . ?
C12K N2L C6L 119(2) . . ?
C12K N2L Ru4 123.8(16) . . ?
C6L N2L Ru4 111.1(13) . . ?
C4G O3G Ru3 129.5(19) . . ?
C4H O3H Ru3 128.2(19) . . ?
C4J O3J Ru4 126.6(18) . . ?
C4K O3K Ru4 125.8(19) . . ?
N7 Ru4 O3K 85.4(11) . . ?
N7 Ru4 N8 176.2(12) . . ?
O3K Ru4 N8 91.2(12) . . ?
N7 Ru4 O3J 84.3(12) . . ?
O3K Ru4 O3J 99.0(13) . . ?
N8 Ru4 O3J 94.6(10) . . ?
N7 Ru4 N2L 99.2(14) . . ?
O3K Ru4 N2L 95.2(12) . . ?
N8 Ru4 N2L 82.8(11) . . ?
O3J Ru4 N2L 165.7(12) . . ?
N7 Ru4 N1L 101.3(13) . . ?
O3K Ru4 N1L 168.6(13) . . ?
N8 Ru4 N1L 82.3(12) . . ?
O3J Ru4 N1L 90.9(12) . . ?
N2L Ru4 N1L 74.8(9) . . ?
Zn5 O1 Zn6 119.3 . 3_565 ?
Zn5 O1 Zn6 119.3 . 2_665 ?
Zn6 O1 Zn6 98.1 3_565 2_665 ?
Zn5 O1 Zn6 119.3 . . ?
Zn6 O1 Zn6 98.1 3_565 . ?
Zn6 O1 Zn6 98.1 2_665 . ?
O1 Zn5 O2G 113.5 . 2_665 ?
O1 Zn5 O2G 113.5 . 3_565 ?
O2G Zn5 O2G 105.2 2_665 3_565 ?
O1 Zn5 O2G 113.5 . . ?
O2G Zn5 O2G 105.2 2_665 . ?
O2G Zn5 O2G 105.2 3_565 . ?
O1 Zn5 Zn6 35.4 . 3_565 ?
O2G Zn5 Zn6 79.3 2_665 3_565 ?
O2G Zn5 Zn6 116.8 3_565 3_565 ?
O2G Zn5 Zn6 135.1 . 3_565 ?
O1 Zn5 Zn6 35.4 . 2_665 ?
O2G Zn5 Zn6 116.8 2_665 2_665 ?
O2G Zn5 Zn6 135.1 3_565 2_665 ?
O2G Zn5 Zn6 79.3 . 2_665 ?
Zn6 Zn5 Zn6 60.2 3_565 2_665 ?
O1 Zn5 Zn6 35.4 . . ?
O2G Zn5 Zn6 135.1 2_665 . ?
O2G Zn5 Zn6 79.3 3_565 . ?
O2G Zn5 Zn6 116.8 . . ?
Zn6 Zn5 Zn6 60.2 3_565 . ?
Zn6 Zn5 Zn6 60.2 2_665 . ?
O2K Zn6 O1G 85.9 . 3_565 ?
O2K Zn6 O1K 112.7 . 3_565 ?
O1G Zn6 O1K 123.2 3_565 3_565 ?
O2K Zn6 O1 112.0 . . ?
O1G Zn6 O1 100.6 3_565 . ?
O1K Zn6 O1 117.9 3_565 . ?
O2K Zn6 Zn5 113.9 . . ?
O1G Zn6 Zn5 75.7 3_565 . ?
O1K Zn6 Zn5 130.6 3_565 . ?
O1 Zn6 Zn5 25.3 . . ?
O2K Zn6 Zn6 76.2 . 2_665 ?
O1G Zn6 Zn6 117.7 3_565 2_665 ?
O1K Zn6 Zn6 118.7 3_565 2_665 ?
O1 Zn6 Zn6 41.0 . 2_665 ?
Zn5 Zn6 Zn6 59.9 . 2_665 ?
O2K Zn6 Zn6 132.4 . 3_565 ?
O1G Zn6 Zn6 129.3 3_565 3_565 ?
O1K Zn6 Zn6 77.0 3_565 3_565 ?
O1 Zn6 Zn6 41.0 . 3_565 ?
Zn5 Zn6 Zn6 59.9 . 3_565 ?
Zn6 Zn6 Zn6 60.0 2_665 3_565 ?
C7G O1G Zn6 125.7(9) . 2_665 ?
C7G O2G Zn5 118.1(8) . . ?
C7K O1K Zn6 118.7(9) . 2_665 ?
C7K O2K Zn6 126.2(8) . . ?
O3H Ru3 N6 91.8(12) . . ?
O3H Ru3 O3G 101.7(13) . . ?
N6 Ru3 O3G 95.0(11) . . ?
O3H Ru3 N5 94.3(12) . . ?
N6 Ru3 N5 173.4(11) . . ?
O3G Ru3 N5 86.3(11) . . ?
O3H Ru3 N2I 94.8(13) . . ?
N6 Ru3 N2I 80.6(12) . . ?
O3G Ru3 N2I 163.1(13) . . ?
N5 Ru3 N2I 96.3(12) . . ?
O3H Ru3 N1I 163.0(14) . . ?
N6 Ru3 N1I 78.4(12) . . ?
O3G Ru3 N1I 93.1(12) . . ?
N5 Ru3 N1I 95.1(11) . . ?
N2I Ru3 N1I 70.1(10) . . ?
Zn7 O2 Zn7 117.0 . 3_675 ?
Zn7 O2 Zn7 117.0 . 2_765 ?
Zn7 O2 Zn7 117.0 3_675 2_765 ?
Zn7 O2 Zn8 100.0 . . ?
Zn7 O2 Zn8 100.0 3_675 . ?
Zn7 O2 Zn8 100.0 2_765 . ?
O2H Zn7 O2 120.1 . . ?
O2H Zn7 O2J 83.8 . 7_554 ?
O2 Zn7 O2J 106.6 . 7_554 ?
O2H Zn7 O1J 127.7 . 8_654 ?
O2 Zn7 O1J 104.7 . 8_654 ?
O2J Zn7 O1J 109.0 7_554 8_654 ?
O2H Zn7 Zn7 115.8 . 3_675 ?
O2 Zn7 Zn7 31.5 . 3_675 ?
O2J Zn7 Zn7 75.2 7_554 3_675 ?
O1J Zn7 Zn7 116.5 8_654 3_675 ?
O2H Zn7 Zn7 132.2 . 2_765 ?
O2 Zn7 Zn7 31.5 . 2_765 ?
O2J Zn7 Zn7 130.8 7_554 2_765 ?
O1J Zn7 Zn7 77.1 8_654 2_765 ?
Zn7 Zn7 Zn7 60.0 3_675 2_765 ?
O2H Zn7 Zn8 76.6 . . ?
O2 Zn7 Zn8 45.0 . . ?
O2J Zn7 Zn8 114.6 7_554 . ?
O1J Zn7 Zn8 132.3 8_654 . ?
Zn7 Zn7 Zn8 60.2 3_675 . ?
Zn7 Zn7 Zn8 60.2 2_765 . ?
O1H Zn8 O1H 102.1 3_675 . ?
O1H Zn8 O1H 102.1 3_675 2_765 ?
O1H Zn8 O1H 102.1 . 2_765 ?
O1H Zn8 O2 116.1 3_675 . ?
O1H Zn8 O2 116.1 . . ?
O1H Zn8 O2 116.1 2_765 . ?
O1H Zn8 Zn7 122.5 3_675 . ?
O1H Zn8 Zn7 81.6 . . ?
O1H Zn8 Zn7 133.8 2_765 . ?
O2 Zn8 Zn7 35.0 . . ?
O1H Zn8 Zn7 133.8 3_675 2_765 ?
O1H Zn8 Zn7 122.5 . 2_765 ?
O1H Zn8 Zn7 81.6 2_765 2_765 ?
O2 Zn8 Zn7 35.0 . 2_765 ?
Zn7 Zn8 Zn7 59.6 . 2_765 ?
O1H Zn8 Zn7 81.6 3_675 3_675 ?
O1H Zn8 Zn7 133.8 . 3_675 ?
O1H Zn8 Zn7 122.5 2_765 3_675 ?
O2 Zn8 Zn7 35.0 . 3_675 ?
Zn7 Zn8 Zn7 59.6 . 3_675 ?
Zn7 Zn8 Zn7 59.6 2_765 3_675 ?
C7H O1H Zn8 115.0(10) . . ?
C7H O2H Zn7 120.0(9) . . ?
C7J O1J Zn7 121.3(9) . 6_565 ?
C7J O2J Zn7 126.6(8) . 4_445 ?

_diffrn_measured_fraction_theta_max 0.335
_diffrn_reflns_theta_full        31.05
_diffrn_measured_fraction_theta_full 0.335
_refine_diff_density_max         0.305
_refine_diff_density_min         -0.183
_refine_diff_density_rms         0.041
