####################################################################### 
# 
# This file contains crystal structure data downloaded from the 
# Cambridge Structural Database (CSD) hosted by the Cambridge 
# Crystallographic Data Centre (CCDC).
# 
# Full information about CCDC data access policies and citation 
# guidelines are available at http://www.ccdc.cam.ac.uk/access/V1 
# 
# Audit and citation data items may have been added by the CCDC. 
# Please retain this information to preserve the provenance of 
# this file and to allow appropriate attribution of the data. 
# 
#######################################################################

data_cmpd_12
_audit_block_doi                 10.5517/ccx7wbb
_database_code_depnum_ccdc_archive 'CCDC 841722'
loop_
_citation_id
_citation_doi
_citation_year
1 10.1002/zaac.200400416 2004
_audit_update_record             
;
2011-08-26 deposited with the CCDC.	2024-07-10 downloaded from the CCDC.
;

_audit_creation_method           'manually at CCDC'

_chemical_name_systematic        
;

;
_chemical_name_common            ?

_chemical_formula_weight         ?
_symmetry_cell_setting           cubic
_symmetry_space_group_name_H-M   Fm-3m
_symmetry_Int_Tables_number      ?

loop_
_symmetry_equiv_pos_as_xyz
?
?
?

_cell_length_a                   40.15
_cell_length_b                   40.15
_cell_length_c                   40.15
_cell_angle_alpha                90
_cell_angle_beta                 90
_cell_angle_gamma                90
_cell_volume                     64741
_cell_formula_units_Z            ?

_exptl_crystal_density_diffrn    0.545

_diffrn_source                   ?

_diffrn_radiation_probe          x-ray
_diffrn_radiation_type           ?
_chemical_melting_point          ?

_exptl_special_details           
;

;

_refine_special_details          
;

;

_refine_ls_R_factor_gt           ?
#This value may have been taken from more than one field

loop_
_atom_site_label
_atom_site_fract_x
_atom_site_fract_y
_atom_site_fract_z
Cr1 0.62974 0.31128 0.12974
O1 0.35102 0.85102 0.35102
O2 0.20846 0.66896 0.62584
O3 0.72677 0.38879 0.11121
O4 0.36771 0.32835 0.08634
C1 0.65002 0.34998 0.07161
C2 0.64662 0.35338 0.03513
C3 0.80083 0.30083 0.37515
C4 0.77485 0.27485 0.37695
C5 0.37502 0.33240 0.01742
C6 0.25900 0.71637 0.62291
H1 0.39277 0.31518 0.03144
H2 0.26657 0.68897 0.62279


#END



