####################################################################### 
# 
# This file contains crystal structure data downloaded from the 
# Cambridge Structural Database (CSD) hosted by the Cambridge 
# Crystallographic Data Centre (CCDC).
# 
# Full information about CCDC data access policies and citation 
# guidelines are available at http://www.ccdc.cam.ac.uk/access/V1 
# 
# Audit and citation data items may have been added by the CCDC. 
# Please retain this information to preserve the provenance of 
# this file and to allow appropriate attribution of the data. 
# 
#######################################################################

data_cmpd_11
_audit_block_doi                 10.5517/ccx7w99
_database_code_depnum_ccdc_archive 'CCDC 841721'
loop_
_citation_id
_citation_doi
_citation_year
1 10.1002/zaac.200400416 2004
_audit_update_record             
;
2011-08-26 deposited with the CCDC.	2024-07-10 downloaded from the CCDC.
;

_audit_creation_method           'manually at CCDC'

_chemical_name_systematic        
;

;
_chemical_name_common            ?

_chemical_formula_weight         ?
_symmetry_cell_setting           cubic
_symmetry_space_group_name_H-M   Pm-3m
_symmetry_Int_Tables_number      ?

loop_
_symmetry_equiv_pos_as_xyz
?
?
?

_cell_length_a                   28.52
_cell_length_b                   28.52
_cell_length_c                   28.52
_cell_angle_alpha                90
_cell_angle_beta                 90
_cell_angle_gamma                90
_cell_volume                     2320.
_cell_formula_units_Z            ?

_exptl_crystal_density_diffrn    0.6

_diffrn_source                   ?

_diffrn_radiation_probe          x-ray
_diffrn_radiation_type           ?
_chemical_melting_point          ?

_exptl_special_details           
;

;

_refine_special_details          
;

;

_refine_ls_R_factor_gt           ?
#This value may have been taken from more than one field

loop_
_atom_site_label
_atom_site_fract_x
_atom_site_fract_y
_atom_site_fract_z
Cr(1) 0.75507 0.00000 0.75507
Cr(2) 0.06038 0.68475 0.31525
O(1) 0.70784 0.00000 0.70784
O(2) 0.80077 0.00000 0.80077
O(3) 0.11663 0.66224 0.33776
O(4) 0.74146 0.67863 0.08494
O(5) 0.79015 0.72439 0.04493
O(6) 0.95892 0.37743 0.68895
C(1) 0.00000 0.39955 0.31094
C(2) 0.00000 0.45091 0.31024
C(3) 0.81057 0.66694 0.15484
C(4) 0.78146 0.69622 0.07770
C(5) 0.81961 0.68652 0.11087
C(6) 0.86421 0.70414 0.10146
C(7) 0.95783 0.52437 0.68982
H(1) 0.77499 0.65095 0.16255
H(2) 0.87265 0.71865 0.06542
H(3) 0.92326 0.54402 0.68987

