
#######################################################################
#
#                 Cambridge Crystallographic Data Centre
#                                CCDC
#
#######################################################################
#
# If this CIF has been generated from an entry in the Cambridge
# Structural Database, then it will include bibliographic, chemical,
# crystal, experimental, refinement or atomic coordinate data resulting
# from the CCDC's data processing and validation procedures.
#
#######################################################################

data_CSD_CIF_JAGREP
_audit_creation_date 2003-09-04
_audit_creation_method CSD-ConQuest-V1
_database_code_CSD JAGREP
_database_code_depnum_ccdc_archive 'CCDC 214361'
_chemical_formula_sum 'H3 B1 O3'
_chemical_formula_moiety
;
H3 B1 O3
;
_journal_coeditor_code "IUCr FA1014"
_journal_coden_Cambridge 591
_journal_volume 59
_journal_year 2003
_journal_page_first i47
_journal_name_full 'Acta Crystallogr.,Sect.C:Cryst.Struct.Commun. '
loop_
_publ_author_name
"R.R.Shuvalov"
"P.C.Burns"
_chemical_name_systematic
;
Orthoboric acid
;
_chemical_name_common
;
boric acid; Teaching Subset: Fundamental Chemistry, Symmetry
;
_cell_volume    410.983
_exptl_crystal_colour 'colorless'
_exptl_crystal_density_diffrn 1.499
_exptl_special_details
;
triclinic polymorph

;
_exptl_crystal_description 'triangular plate'
_diffrn_ambient_temperature 297
#These two values have been output from a single CSD field.
_refine_ls_R_factor_gt 0.0438
_refine_ls_wR_factor_gt 0.0438
_symmetry_cell_setting hexagonal
_symmetry_space_group_name_H-M 'P 32'
_symmetry_Int_Tables_number 145
loop_
_symmetry_equiv_pos_site_id
_symmetry_equiv_pos_as_xyz
1 x,y,z
2 -y,x-y,2/3+z
3 -x+y,-x,1/3+z
_cell_length_a 7.0453(4)
_cell_length_b 7.0453(4)
_cell_length_c 9.5608(7)
_cell_angle_alpha 90
_cell_angle_beta 90
_cell_angle_gamma 120
_cell_formula_units_Z 6
loop_
_atom_type_symbol
_atom_type_radius_bond
H 0.23
B 0.83
O 0.68
loop_
_atom_site_label
_atom_site_type_symbol
_atom_site_fract_x
_atom_site_fract_y
_atom_site_fract_z
B1 B 0.1837(9) 0.6403(10) 0.2849(7)
O1 O 0.0621(6) 0.7393(7) 0.2805(3)
O2 O 0.0864(6) 0.4195(5) 0.2808(3)
O3 O 0.4090(5) 0.7650(6) 0.2869(3)
H1 H 0.133(4) 0.877(3) 0.316(3)
H2 H -0.057(3) 0.361(5) 0.311(3)
H3 H 0.483(4) 0.695(4) 0.311(3)
B2 B 0.5180(5) 0.3069(5) 0.2964(5)
O4 O 0.6437(6) 0.2103(5) 0.2929(2)
O5 O 0.2950(6) 0.1832(6) 0.2998(3)
O6 O 0.6136(7) 0.5294(6) 0.2904(3)
H4 H 0.565(5) 0.077(4) 0.333(3)
H5 H 0.243(5) 0.274(4) 0.324(3)
H6 H 0.755(3) 0.602(4) 0.318(3)
#END
