
#######################################################################
#
#                 Cambridge Crystallographic Data Centre
#                                CCDC
#
#######################################################################
#
# If this CIF has been generated from an entry in the Cambridge
# Structural Database, then it will include bibliographic, chemical,
# crystal, experimental, refinement or atomic coordinate data resulting
# from the CCDC's data processing and validation procedures.
#
#######################################################################

data_CSD_CIF_JIHPAR01
_audit_creation_date 1991-08-27
_audit_creation_method CSD-ConQuest-V1
_database_code_CSD JIHPAR01
_database_code_depnum_ccdc_archive 'CCDC 1186234'
_chemical_formula_sum 'C6 Cs2 Fe1 K1 N6'
_chemical_formula_moiety
;
C6 Fe1 N6 3-,2(Cs1 1+),K1 1+
;
_journal_coden_Cambridge 186
_journal_year 1990
_journal_page_first 3597
_journal_name_full 'J.Chem.Soc.,Dalton Trans. '
loop_
_publ_author_name
"B.N.Figgis"
"E.S.Kucharski"
"J.M.Raynes"
"P.A.Reynolds"
_chemical_name_systematic
;
Dicesium potassium hexacyano-iron(iii)
;
_chemical_name_common
;
Teaching Subset: Fundamental Chemistry, Symmetry
;
_cell_volume    694.509
_exptl_crystal_colour 'red-brown'
_exptl_crystal_density_diffrn 2.47
_diffrn_ambient_temperature ?
_diffrn_special_details
;
The study was carried out at room temperature,in the range 283-303K

;
#These two values have been output from a single CSD field.
_refine_ls_R_factor_gt 0.014
_refine_ls_wR_factor_gt 0.014
_symmetry_cell_setting monoclinic
_symmetry_space_group_name_H-M 'P 21/n'
_symmetry_Int_Tables_number 14
loop_
_symmetry_equiv_pos_site_id
_symmetry_equiv_pos_as_xyz
1 x,y,z
2 1/2-x,1/2+y,1/2-z
3 -x,-y,-z
4 -1/2+x,-1/2-y,-1/2+z
_cell_length_a 11.145(4)
_cell_length_b 8.131(4)
_cell_length_c 7.664(2)
_cell_angle_alpha 90
_cell_angle_beta 90.16(3)
_cell_angle_gamma 90
_cell_formula_units_Z 2
loop_
_atom_type_symbol
_atom_type_radius_bond
C 0.68
Cs 1.67
Fe 1.34
K 1.33
N 0.68
loop_
_atom_site_label
_atom_site_type_symbol
_atom_site_fract_x
_atom_site_fract_y
_atom_site_fract_z
Cs1 Cs 0.25053(1) 0.43218(2) -0.02074(2)
K1 K 0.00000 0.50000 0.50000
Fe1 Fe 0.00000 0.00000 0.00000
C1 C 0.03114(16) 0.12796(23) -0.20758(29)
C2 C 0.03874(17) -0.20010(26) -0.12492(22)
C3 C 0.16644(33) 0.02150(21) 0.06864(25)
N1 N 0.05171(20) 0.20310(29) -0.33271(41)
N2 N 0.06321(23) -0.31945(42) -0.19949(32)
N3 N 0.26503(33) 0.03815(28) 0.11211(34)
C1B C -0.03114(16) -0.12796(23) 0.20758(29)
C2B C -0.03874(17) 0.20010(26) 0.12492(22)
C3B C -0.16644(33) -0.02150(21) -0.06864(25)
N1B N -0.05171(20) -0.20310(29) 0.33271(41)
N2B N -0.06321(23) 0.31945(42) 0.19949(32)
N3B N -0.26503(33) -0.03815(28) -0.11211(34)
#END
