
#######################################################################
#
#                 Cambridge Crystallographic Data Centre
#                                CCDC
#
#######################################################################
#
# If this CIF has been generated from an entry in the Cambridge
# Structural Database, then it will include bibliographic, chemical,
# crystal, experimental, refinement or atomic coordinate data resulting
# from the CCDC's data processing and validation procedures.
#
#######################################################################

data_CSD_CIF_KOVSOD
_audit_creation_date 1992-11-16
_audit_creation_method CSD-ConQuest-V1
_database_code_CSD KOVSOD
_database_code_depnum_ccdc_archive 'CCDC 1199773'
_database_code_depnum_ccdc_fiz 'CSD 300206'
_chemical_formula_sum 'C6 O6 W1'
_chemical_formula_moiety
;
C6 O6 W1
;
_journal_coden_Cambridge 643
_journal_volume 198
_journal_year 1992
_journal_page_first 123
_journal_name_full 'Z.Krist.Cryst.Mater. '
loop_
_publ_author_name
"F.Heinemann"
"H.Schmidt"
"K.Peters"
"D.Thiery"
_chemical_name_systematic
;
Hexacarbonyl-tungsten
;
_chemical_name_common
;
Teaching Subset: Fundamental Chemistry, Symmetry
;
_cell_volume    877.153
_diffrn_ambient_temperature ?
_diffrn_special_details
;
The study was carried out at room temperature,in the range 283-303K

;
#These two values have been output from a single CSD field.
_refine_ls_R_factor_gt 0.028
_refine_ls_wR_factor_gt 0.028
_symmetry_cell_setting orthorhombic
_symmetry_space_group_name_H-M 'P n m a'
_symmetry_Int_Tables_number 62
loop_
_symmetry_equiv_pos_site_id
_symmetry_equiv_pos_as_xyz
1 x,y,z
2 1/2-x,-y,1/2+z
3 1/2+x,1/2-y,1/2-z
4 -x,1/2+y,-z
5 -x,-y,-z
6 -1/2+x,y,-1/2-z
7 -1/2-x,-1/2+y,-1/2+z
8 x,-1/2-y,z
_cell_length_a 11.944(1)
_cell_length_b 11.370(1)
_cell_length_c 6.459(1)
_cell_angle_alpha 90
_cell_angle_beta 90
_cell_angle_gamma 90
_cell_formula_units_Z 4
loop_
_atom_type_symbol
_atom_type_radius_bond
C 0.68
O 0.68
W 1.37
loop_
_atom_site_label
_atom_site_type_symbol
_atom_site_fract_x
_atom_site_fract_y
_atom_site_fract_z
W1 W 0.12723(4) 0.25000 1.06302(9)
C1 C 0.033(1) 0.25000 0.801(3)
C2 C 0.0263(7) 0.1247(9) 1.182(2)
C3 C 0.2264(7) 0.1233(9) 0.938(2)
C4 C 0.222(1) 0.25000 1.323(3)
O1 O -0.0183(9) 0.25000 0.654(2)
O2 O -0.0317(6) 0.0538(7) 1.253(1)
O3 O 0.2817(6) 0.0511(7) 0.871(1)
O4 O 0.2742(9) 0.25000 1.473(2)
C2G C 0.0263(7) 0.3753(9) 1.182(2)
C3G C 0.2264(7) 0.3767(9) 0.938(2)
O2G O -0.0317(6) 0.4462(7) 1.253(1)
O3G O 0.2817(6) 0.4489(7) 0.871(1)
#END
