####################################################################### 
# 
# This file contains crystal structure data downloaded from the 
# Cambridge Structural Database (CSD) hosted by the Cambridge 
# Crystallographic Data Centre (CCDC).
# 
# Full information about CCDC data access policies and citation 
# guidelines are available at http://www.ccdc.cam.ac.uk/access/V1 
# 
# Audit and citation data items may have been added by the CCDC. 
# Please retain this information to preserve the provenance of 
# this file and to allow appropriate attribution of the data. 
# 
#######################################################################

data_150K_publ
_audit_block_doi                 10.5517/cc1jtsrw
_database_code_depnum_ccdc_archive 'CCDC 1424969'
loop_
_citation_id
_citation_doi
_citation_year
1 10.1021/cm503311x 2015
_audit_update_record             
;
2015-09-14 deposited with the CCDC.	2024-07-11 downloaded from the CCDC.
;

_pd_block_id                     2014-08-28T12:44|150K||

_audit_creation_method           'from EXP file using GSAS2CIF'
_audit_creation_date             2014-08-28T12:44

#=============================================================================
# 5. OVERALL REFINEMENT & COMPUTING DETAILS

_refine_special_details          
; ?
;
_pd_proc_ls_special_details      
; ?
;

# The following items are used to identify the programs used.
_computing_molecular_graphics    ?
_computing_publication_material  ?

_refine_ls_weighting_scheme      ?
_refine_ls_weighting_details     ?
_refine_ls_hydrogen_treatment    ?
_refine_ls_extinction_method     ?
_refine_ls_extinction_coef       ?
_refine_ls_number_constraints    ?

_refine_ls_restrained_S_all      ?
_refine_ls_restrained_S_obs      ?

#==============================================================================
# 6. SAMPLE PREPARATION DATA

# (In the unusual case where multiple samples are used in a single
#  Rietveld study, this information should be moved into the phase
#  blocks)

# The following three fields describe the preparation of the material.
# The cooling rate is in K/min.  The pressure at which the sample was
# prepared is in kPa.  The temperature of preparation is in K.

_pd_prep_cool_rate               ?
_pd_prep_pressure                ?
_pd_prep_temperature             ?

_pd_char_colour                  ? # use ICDD colour descriptions
_refine_ls_shift/su_max          0.01
_refine_ls_shift/su_mean         0.00
_computing_structure_refinement  GSAS
_refine_ls_number_parameters     40
_refine_ls_goodness_of_fit_all   2.32
_refine_ls_number_restraints     0
_refine_ls_matrix_type           full
#==============================================================================
# 7. CHEMICAL, STRUCTURAL AND CRYSTAL DATA

_pd_char_particle_morphology     ?

_chemical_name_systematic        
; ?
;
_chemical_name_common            ?
_chemical_formula_moiety         ?
_chemical_formula_structural     ?
_chemical_formula_analytical     ?
_chemical_melting_point          ?
_chemical_compound_source        ? # for minerals and
# natural products
_symmetry_space_group_name_Hall  ?

_exptl_crystal_F_000             ?
_exptl_crystal_density_diffrn    ?
_exptl_crystal_density_meas      ?
_exptl_crystal_density_method    ?

_cell_measurement_temperature    ?

_cell_special_details            
; ?
;

_geom_special_details            ?

# The following item identifies the program(s) used (if appropriate).
_computing_structure_solution    ?

#==============================================================================

# 8. Phase information from GSAS

_pd_phase_name                   11K
_cell_length_a                   6.56220(15)
_cell_length_b                   16.4151(5)
_cell_length_c                   13.1768(6)
_cell_angle_alpha                90.0
_cell_angle_beta                 90.0
_cell_angle_gamma                90.2748(18)
_cell_volume                     1419.37(8)
_symmetry_cell_setting           monoclinic
_symmetry_space_group_name_H-M   'I 1 1 2/b'
loop_
_symmetry_equiv_pos_site_id
_symmetry_equiv_pos_as_xyz
1 +x,+y,+z
2 -x,-y+1/2,+z
-1 -x,-y,-z
-2 +x,+y+1/2,-z
101 +x+1/2,+y+1/2,+z+1/2
102 -x+1/2,-y,+z+1/2
-101 -x+1/2,-y+1/2,-z+1/2
-102 +x+1/2,+y,-z+1/2

# ATOMIC COORDINATES AND DISPLACEMENT PARAMETERS


loop_
_atom_site_type_symbol
_atom_site_label
_atom_site_fract_x
_atom_site_fract_y
_atom_site_fract_z
_atom_site_occupancy
_atom_site_thermal_displace_type
_atom_site_U_iso_or_equiv
_atom_site_symmetry_multiplicity
Al Al1 0.25 0.25 0.75 1.0 Uiso 0.0463(17) 4
F F 0.0 0.25 0.6913(4) 1.0 Uiso 0.0248(10) 4
O O1 0.1669(9) 0.1699(4) 0.8499(7) 1.0 Uiso 0.0248(10) 8
O O2 -0.1764(10) 0.6634(4) -0.8360(6) 1.0 Uiso 0.0248(10) 8
C C3 -0.2013(19) 0.0293(8) -0.0419(10) 1.0 Uiso 0.0327(17) 8
C C2 0.0039(27) 0.0608(5) 0.9420(7) 1.0 Uiso 0.0327(17) 8
C C1 0.0000(20) 0.1386(5) 0.8687(7) 1.0 Uiso 0.0327(17) 8
C C4 0.1931(19) 0.5363(8) -0.9692(11) 1.0 Uiso 0.0327(17) 8

# If you change Z, be sure to change all 3 of the following
_chemical_formula_sum            'C8 Al F O4'
_chemical_formula_weight         206.06
_cell_formula_units_Z            4

# MOLECULAR GEOMETRY

loop_
_geom_bond_atom_site_label_1
_geom_bond_atom_site_label_2
_geom_bond_distance
_geom_bond_site_symmetry_1
_geom_bond_site_symmetry_2
_geom_bond_publ_flag
Al1 F 1.8135(24) . 1_555 N
Al1 F 1.8135(24) . -101_445 N
Al1 O1 1.937(7) . 1_555 N
Al1 O1 1.937(7) . -101_445 N
Al1 O2 1.883(7) . -1_565 N
Al1 O2 1.883(7) . 101_546 N
F Al1 1.8135(24) . 1_555 N
F Al1 1.8135(24) . 2_555 N
O1 Al1 1.937(7) . 1_555 N
O1 C1 1.233(12) . 1_555 N
O2 Al1 1.883(7) . -1_565 N
O2 C1 1.303(11) . -2_555 N
C3 C2 1.456(14) . 1_554 N
C3 C4 1.441(9) . 2_556 N
C2 C3 1.456(14) . 1_556 N
C2 C1 1.601(8) . 1_555 N
C2 C4 1.355(14) . -2_545 N
C1 O1 1.233(12) . 1_555 N
C1 O2 1.303(11) . -2_545 N
C1 C2 1.601(8) . 1_555 N
C4 C3 1.441(9) . 2_554 N
C4 C2 1.355(14) . -2_555 N

loop_
_geom_angle_atom_site_label_1
_geom_angle_atom_site_label_2
_geom_angle_atom_site_label_3
_geom_angle
_geom_angle_site_symmetry_1
_geom_angle_site_symmetry_2
_geom_angle_site_symmetry_3
_geom_angle_publ_flag
F Al1 F 180.0 1_555 . -101_566 N
F Al1 O1 92.16(20) 1_555 . 1_555 N
F Al1 O1 87.84(20) 1_555 . -101_445 N
F Al1 O2 91.21(22) 1_555 . -1_565 N
F Al1 O2 88.79(22) 1_555 . 101_546 N
F Al1 O1 87.84(20) -101_445 . 1_555 N
F Al1 O1 92.16(20) -101_445 . -101_445 N
F Al1 O2 88.79(22) -101_445 . -1_565 N
F Al1 O2 91.21(22) -101_445 . 101_546 N
O1 Al1 O1 180.0 1_555 . -101_445 N
O1 Al1 O2 91.79(23) 1_555 . -1_565 N
O1 Al1 O2 88.21(23) 1_555 . 101_546 N
O1 Al1 O2 88.21(23) -101_445 . -1_565 N
O1 Al1 O2 91.79(23) -101_445 . 101_546 N
O2 Al1 O2 180.0 -1_565 . 101_546 N
Al1 F Al1 129.55(32) 1_555 . 2_555 N
Al1 O1 C1 131.8(8) 1_555 . 1_555 N
Al1 O2 C1 131.8(7) -1_565 . -2_565 N
C2 C3 C4 108.9(11) 1_554 . 2_556 N
C3 C2 C1 110.7(14) 1_556 . 1_555 N
C3 C2 C4 134.6(9) 1_556 . -2_555 N
C1 C2 C4 114.5(14) 1_555 . -2_555 N
O1 C1 O2 126.3(8) 1_555 . -2_444 N
O1 C1 C2 115.9(12) 1_555 . 1_555 N
O2 C1 C2 117.8(11) -2_555 . 1_555 N
C3 C4 C2 115.8(11) 2_554 . -2_565 N

# Powder diffraction data for histogram  1
#==============================================================================
# 9. INSTRUMENT CHARACTERIZATION

_exptl_special_details           
; ?
;

# if regions of the data are excluded, the reason(s) are supplied here:
_pd_proc_info_excluded_regions   
; ?
;

# The following item is used to identify the equipment used to record
# the powder pattern when the diffractogram was measured at a laboratory
# other than the authors' home institution, e.g. when neutron or synchrotron
# radiation is used.

_pd_instr_location               
; ?
;
_pd_calibration_special_details  
# description of the method used
# to calibrate the instrument
; ?
;

_diffrn_ambient_temperature      ?
_diffrn_source                   ?
_diffrn_source_target            ?
_diffrn_source_type              ?
_diffrn_measurement_device_type  ?
_diffrn_detector                 ?
_diffrn_detector_type            ? # make or model of detector

_pd_meas_scan_method             ? # options are 'step', 'cont',
# 'tof', 'fixed' or
# 'disp' (= dispersive)
_pd_meas_special_details         
;  ?
;

# The following two items identify the program(s) used (if appropriate).
_computing_data_collection       ?
_computing_data_reduction        ?

# Describe any processing performed on the data, prior to refinement.
# For example: a manual Lp correction or a precomputed absorption correction
_pd_proc_info_data_reduction     ?

# The following item is used for angular dispersive measurements only.

_diffrn_radiation_monochromator  ?

# The following items are used to define the size of the instrument.
# Not all distances are appropriate for all instrument types.

_pd_instr_dist_src/mono          ?
_pd_instr_dist_mono/spec         ?
_pd_instr_dist_src/spec          ?
_pd_instr_dist_spec/anal         ?
_pd_instr_dist_anal/detc         ?
_pd_instr_dist_spec/detc         ?

# 10. Specimen size and mounting information

# The next three fields give the specimen dimensions in mm.  The equatorial
# plane contains the incident and diffracted beam.

_pd_spec_size_axial              ? # perpendicular to
# equatorial plane

_pd_spec_size_equat              ? # parallel to
# scattering vector
# in transmission

_pd_spec_size_thick              ? # parallel to
# scattering vector
# in reflection

_pd_spec_mounting                
# This field should be
# used to give details of the
# container.
; ?
;

_pd_spec_mount_mode              ? # options are 'reflection'
# or 'transmission'

_pd_spec_shape                   ? # options are 'cylinder'
# 'flat_sheet' or 'irregular'


loop_
_atom_type_symbol
_atom_type_number_in_cell
_atom_type_scat_dispersion_real
_atom_type_scat_dispersion_imag
_atom_type_scat_Cromer_Mann_a1
_atom_type_scat_Cromer_Mann_a2
_atom_type_scat_Cromer_Mann_a3
_atom_type_scat_Cromer_Mann_a4
_atom_type_scat_Cromer_Mann_b1
_atom_type_scat_Cromer_Mann_b2
_atom_type_scat_Cromer_Mann_b3
_atom_type_scat_Cromer_Mann_b4
_atom_type_scat_Cromer_Mann_c
_atom_type_scat_source
Al 4.0 0.000 0.000 6.42020 3.03870 1.90020 0.74260 1.59360 31.5472 1.96460
85.0886 1.11510 International_Tables_Vol_C
F 4.0 0.000 0.000 3.53920 10.2825 2.64120 4.29440 1.51700 0.26150 1.02430
26.1476 0.27760 International_Tables_Vol_C
O 16.0 0.000 0.000 3.04850 13.2771 2.28680 5.70110 1.54630 0.32390 0.86700
32.9089 0.25080 International_Tables_Vol_C
C 32.0 0.000 0.000 2.31000 20.8439 1.02000 10.2075 1.58860 0.56870 0.86500
51.6512 0.21560 International_Tables_Vol_C
_diffrn_radiation_probe          x-ray
_diffrn_radiation_polarisn_ratio 0.95
_diffrn_radiation_wavelength     0.827154
_diffrn_radiation_type           ?
_pd_proc_ls_prof_R_factor        0.0815
_pd_proc_ls_prof_wR_factor       0.1075
_pd_proc_ls_prof_wR_expected     0.0464
_refine_ls_R_Fsqd_factor         0.32016

_pd_proc_ls_background_function  
;   GSAS Background function number 1 with  2 terms.
 Shifted Chebyshev function of 1st kind
      1:    0.00000     2:    0.00000    
;

_exptl_absorpt_process_details   
;   GSAS Absorption/surface roughness correction: function number 0
 No correction is applied.
;
_exptl_absorpt_correction_T_min  1.00000
_exptl_absorpt_correction_T_max  1.00000
# Extinction correction
_gsas_exptl_extinct_corr_T_min   1.00000
_gsas_exptl_extinct_corr_T_max   1.00000

_pd_proc_ls_profile_function     
;
 CW Profile function number 4 with  21 terms
 Pseudovoigt profile coefficients as parameterized in
 P. Thompson, D.E. Cox & J.B. Hastings (1987). J. Appl. Cryst.,20,79-83.
 Asymmetry correction of L.W. Finger, D.E. Cox & A. P. Jephcoat (1994).
 J. Appl. Cryst.,27,892-900.
 Microstrain broadening by P.W. Stephens,  (1999). J. Appl. Cryst.,32,281-289.
 #1(GU)   =    0.000 #2(GV)   =    0.000 #3(GW)   =    0.000
 #4(GP)   =    0.000 #5(LX)   =    1.075 #6(ptec) =     0.36
 #7(trns) =     0.00 #8(shft) =   0.0000 #9(sfec) =     0.00
 #10(S/L) =   0.0005 #11(H/L) =   0.0005 #12(eta) =   0.6210
 #13(S400 ) =  3.8E-02 #14(S040 ) =  6.4E-02 #15(S004 ) =  3.2E-01
 #16(S220 ) =  2.8E-02 #17(S202 ) =  6.3E-02 #18(S022 ) = -9.5E-02
 #19(S130 ) = -3.6E-02 #20(S310 ) =  5.4E-02 #21(S112 ) =  4.1E-02
 Peak tails are ignored  where the intensity is below 0.0005 times the peak
   Aniso. broadening axis   0.0   2.0   2.0
;
_pd_proc_ls_peak_cutoff          0.00050
_pd_proc_info_datetime           2014-08-28T12:44:05
_pd_calc_method                  'Rietveld Refinement'

#---- raw/calc data loop -----
_pd_meas_2theta_range_min        0.002
_pd_meas_2theta_range_max        150.01401
_pd_meas_2theta_range_inc        0.004
_pd_proc_2theta_range_min        0.05702
_pd_proc_2theta_range_max        150.06902
_pd_proc_2theta_range_inc        0.004

loop_
_pd_meas_intensity_total
_pd_proc_ls_weight
_pd_proc_intensity_bkg_calc
_pd_calc_intensity_total
13(4) 0.0 0.0 .
12.0(35) 0.0 0.00 .
15(4) 0.0 0.0 .
17(4) 0.0 0.0 .
21(5) 0.0 0.0 .
13(4) 0.0 0.0 .
12.0(35) 0.0 0.00 .
15(4) 0.0 0.0 .
9.0(30) 0.0 0.00 .
22(5) 0.0 0.0 .
20(4) 0.0 0.0 .
14(4) 0.0 0.0 .
11.0(33) 0.0 0.00 .
13(4) 0.0 0.0 .
14(4) 0.0 0.0 .
16(4) 0.0 0.0 .
12.0(35) 0.0 0.00 .
17(4) 0.0 0.0 .
14(4) 0.0 0.0 .
25(5) 0.0 0.0 .
17(4) 0.0 0.0 .
12.0(35) 0.0 0.00 .
21(5) 0.0 0.0 .
10.0(32) 0.0 0.00 .
18(4) 0.0 0.0 .
16(4) 0.0 0.0 .
9.0(30) 0.0 0.00 .
9.0(30) 0.0 0.00 .
10.0(32) 0.0 0.00 .
11.0(33) 0.0 0.00 .
18(4) 0.0 0.0 .
18(4) 0.0 0.0 .
18(4) 0.0 0.0 .
19(4) 0.0 0.0 .
19(4) 0.0 0.0 .
14(4) 0.0 0.0 .
14(4) 0.0 0.0 .
11.0(33) 0.0 0.00 .
10.0(32) 0.0 0.00 .
15(4) 0.0 0.0 .
16(4) 0.0 0.0 .
11.0(33) 0.0 0.00 .
19(4) 0.0 0.0 .
16(4) 0.0 0.0 .
19(4) 0.0 0.0 .
13(4) 0.0 0.0 .
13(4) 0.0 0.0 .
18(4) 0.0 0.0 .
13(4) 0.0 0.0 .
14(4) 0.0 0.0 .
14(4) 0.0 0.0 .
12.0(35) 0.0 0.00 .
8.0(28) 0.0 0.00 .
15(4) 0.0 0.0 .
18(4) 0.0 0.0 .
15(4) 0.0 0.0 .
18(4) 0.0 0.0 .
16(4) 0.0 0.0 .
17(4) 0.0 0.0 .
15(4) 0.0 0.0 .
6.0(24) 0.0 0.00 .
14(4) 0.0 0.0 .
14(4) 0.0 0.0 .
18(4) 0.0 0.0 .
15(4) 0.0 0.0 .
15(4) 0.0 0.0 .
11.0(33) 0.0 0.00 .
13(4) 0.0 0.0 .
18(4) 0.0 0.0 .
7.0(26) 0.0 0.00 .
11.0(33) 0.0 0.00 .
8.0(28) 0.0 0.00 .
11.0(33) 0.0 0.00 .
14(4) 0.0 0.0 .
17(4) 0.0 0.0 .
12.0(35) 0.0 0.00 .
16(4) 0.0 0.0 .
15(4) 0.0 0.0 .
15(4) 0.0 0.0 .
16(4) 0.0 0.0 .
17(4) 0.0 0.0 .
14(4) 0.0 0.0 .
20(4) 0.0 0.0 .
17(4) 0.0 0.0 .
10.0(32) 0.0 0.00 .
16(4) 0.0 0.0 .
15(4) 0.0 0.0 .
16(4) 0.0 0.0 .
12.0(35) 0.0 0.00 .
17(4) 0.0 0.0 .
19(4) 0.0 0.0 .
13(4) 0.0 0.0 .
14(4) 0.0 0.0 .
13(4) 0.0 0.0 .
11.0(33) 0.0 0.00 .
10.0(32) 0.0 0.00 .
18(4) 0.0 0.0 .
16(4) 0.0 0.0 .
18(4) 0.0 0.0 .
18(4) 0.0 0.0 .
15(4) 0.0 0.0 .
16(4) 0.0 0.0 .
26(5) 0.0 0.0 .
19(4) 0.0 0.0 .
25(5) 0.0 0.0 .
21(5) 0.0 0.0 .
29(5) 0.0 0.0 .
27(5) 0.0 0.0 .
47(7) 0.0 0.0 .
67(8) 0.0 0.0 .
88(9) 0.0 0.0 .
93(10) 0.0 0.0 .
134(12) 0.0 0.0 .
156(12) 0.0 0.0 .
210(14) 0.0 0.0 .
300(17) 0.0 0.0 .
380(19) 0.0 0.0 .
488(22) 0.0 0.0 .
616(25) 0.0 0.0 .
698(26) 0.0 0.0 .
827(29) 0.0 0.0 .
965(31) 0.0 0.0 .
1038(32) 0.0 0.0 .
1008(32) 0.0 0.0 .
999(32) 0.0 0.0 .
1009(32) 0.0 0.0 .
973(31) 0.0 0.0 .
940(31) 0.0 0.0 .
997(32) 0.0 0.0 .
955(31) 0.0 0.0 .
893(30) 0.0 0.0 .
964(31) 0.0 0.0 .
916(30) 0.0 0.0 .
850(29) 0.0 0.0 .
886(30) 0.0 0.0 .
836(29) 0.0 0.0 .
886(30) 0.0 0.0 .
810(28) 0.0 0.0 .
856(29) 0.0 0.0 .
733(27) 0.0 0.0 .
687(26) 0.0 0.0 .
680(26) 0.0 0.0 .
616(25) 0.0 0.0 .
640(25) 0.0 0.0 .
558(24) 0.0 0.0 .
560(24) 0.0 0.0 .
500(22) 0.0 0.0 .
456(21) 0.0 0.0 .
443(21) 0.0 0.0 .
448(21) 0.0 0.0 .
377(19) 0.0 0.0 .
419(20) 0.0 0.0 .
386(20) 0.0 0.0 .
397(20) 0.0 0.0 .
350(19) 0.0 0.0 .
375(19) 0.0 0.0 .
343(19) 0.0 0.0 .
344(19) 0.0 0.0 .
344(19) 0.0 0.0 .
350(19) 0.0 0.0 .
374(19) 0.0 0.0 .
340(18) 0.0 0.0 .
322(18) 0.0 0.0 .
354(19) 0.0 0.0 .
363(19) 0.0 0.0 .
346(19) 0.0 0.0 .
342(18) 0.0 0.0 .
353(19) 0.0 0.0 .
356(19) 0.0 0.0 .
353(19) 0.0 0.0 .
304(17) 0.0 0.0 .
345(19) 0.0 0.0 .
312(18) 0.0 0.0 .
336(18) 0.0 0.0 .
357(19) 0.0 0.0 .
336(18) 0.0 0.0 .
356(19) 0.0 0.0 .
361(19) 0.0 0.0 .
316(18) 0.0 0.0 .
393(20) 0.0 0.0 .
389(20) 0.0 0.0 .
370(19) 0.0 0.0 .
355(19) 0.0 0.0 .
355(19) 0.0 0.0 .
355(19) 0.0 0.0 .
393(20) 0.0 0.0 .
395(20) 0.0 0.0 .
388(20) 0.0 0.0 .
413(20) 0.0 0.0 .
381(20) 0.0 0.0 .
421(21) 0.0 0.0 .
368(19) 0.0 0.0 .
395(20) 0.0 0.0 .
373(19) 0.0 0.0 .
391(20) 0.0 0.0 .
401(20) 0.0 0.0 .
400(20) 0.0 0.0 .
401(20) 0.0 0.0 .
409(20) 0.0 0.0 .
413(20) 0.0 0.0 .
427(21) 0.0 0.0 .
426(21) 0.0 0.0 .
434(21) 0.0 0.0 .
422(21) 0.0 0.0 .
440(21) 0.0 0.0 .
458(21) 0.0 0.0 .
449(21) 0.0 0.0 .
472(22) 0.0 0.0 .
428(21) 0.0 0.0 .
472(22) 0.0 0.0 .
437(21) 0.0 0.0 .
453(21) 0.0 0.0 .
495(22) 0.0 0.0 .
480(22) 0.0 0.0 .
453(21) 0.0 0.0 .
479(22) 0.0 0.0 .
443(21) 0.0 0.0 .
467(22) 0.0 0.0 .
498(22) 0.0 0.0 .
468(22) 0.0 0.0 .
513(23) 0.0 0.0 .
509(23) 0.0 0.0 .
506(22) 0.0 0.0 .
529(23) 0.0 0.0 .
505(22) 0.0 0.0 .
564(24) 0.0 0.0 .
534(23) 0.0 0.0 .
576(24) 0.0 0.0 .
580(24) 0.0 0.0 .
600(24) 0.0 0.0 .
618(25) 0.0 0.0 .
682(26) 0.0 0.0 .
708(27) 0.0 0.0 .
790(28) 0.0 0.0 .
932(31) 0.0 0.0 .
1005(32) 0.0 0.0 .
1117(33) 0.0 0.0 .
1267(36) 0.0 0. .
1448(38) 0.0 0. .
1665(41) 0.0 0. .
1771(42) 0.0 0. .
1919(44) 0.0 0. .
2095(46) 0.0 0. .
2284(48) 0.0 0. .
2579(51) 0.0 0. .
2828(53) 0.0 0. .
2989(55) 0.0 0. .
3381(58) 0.0 0. .
3897(62) 0.0 0. .
3981(63) 0.0 0. .
4298(66) 0.0 0. .
4895(70) 0.0 0. .
5396(7