####################################################################### 
# 
# This file contains crystal structure data downloaded from the 
# Cambridge Structural Database (CSD) hosted by the Cambridge 
# Crystallographic Data Centre (CCDC).
# 
# Full information about CCDC data access policies and citation 
# guidelines are available at http://www.ccdc.cam.ac.uk/access/V1 
# 
# Audit and citation data items may have been added by the CCDC. 
# Please retain this information to preserve the provenance of 
# this file and to allow appropriate attribution of the data. 
# 
#######################################################################

data_250K_publ
_audit_block_doi                 10.5517/cc1jtsty
_database_code_depnum_ccdc_archive 'CCDC 1424971'
loop_
_citation_id
_citation_doi
_citation_year
1 10.1021/cm503311x 2015
_audit_update_record             
;
2015-09-14 deposited with the CCDC.	2024-07-11 downloaded from the CCDC.
;

_pd_block_id                     2014-08-28T12:45|250K||

_audit_creation_method           'from EXP file using GSAS2CIF'
_audit_creation_date             2014-08-28T12:45

#=============================================================================
# 5. OVERALL REFINEMENT & COMPUTING DETAILS

_refine_special_details          
; ?
;
_pd_proc_ls_special_details      
; ?
;

# The following items are used to identify the programs used.
_computing_molecular_graphics    ?
_computing_publication_material  ?

_refine_ls_weighting_scheme      ?
_refine_ls_weighting_details     ?
_refine_ls_hydrogen_treatment    ?
_refine_ls_extinction_method     ?
_refine_ls_extinction_coef       ?
_refine_ls_number_constraints    ?

_refine_ls_restrained_S_all      ?
_refine_ls_restrained_S_obs      ?

#==============================================================================
# 6. SAMPLE PREPARATION DATA

# (In the unusual case where multiple samples are used in a single
#  Rietveld study, this information should be moved into the phase
#  blocks)

# The following three fields describe the preparation of the material.
# The cooling rate is in K/min.  The pressure at which the sample was
# prepared is in kPa.  The temperature of preparation is in K.

_pd_prep_cool_rate               ?
_pd_prep_pressure                ?
_pd_prep_temperature             ?

_pd_char_colour                  ? # use ICDD colour descriptions
_refine_ls_shift/su_max          0.01
_refine_ls_shift/su_mean         0.00
_computing_structure_refinement  GSAS
_refine_ls_number_parameters     27
_refine_ls_goodness_of_fit_all   2.23
_refine_ls_number_restraints     0
_refine_ls_matrix_type           full
#==============================================================================
# 7. CHEMICAL, STRUCTURAL AND CRYSTAL DATA

_pd_char_particle_morphology     ?

_chemical_name_systematic        
; ?
;
_chemical_name_common            ?
_chemical_formula_moiety         ?
_chemical_formula_structural     ?
_chemical_formula_analytical     ?
_chemical_melting_point          ?
_chemical_compound_source        ? # for minerals and
# natural products
_symmetry_space_group_name_Hall  ?

_exptl_crystal_F_000             ?
_exptl_crystal_density_diffrn    ?
_exptl_crystal_density_meas      ?
_exptl_crystal_density_method    ?

_cell_measurement_temperature    ?

_cell_special_details            
; ?
;

_geom_special_details            ?

# The following item identifies the program(s) used (if appropriate).
_computing_structure_solution    ?

#==============================================================================

# 8. Phase information from GSAS

_pd_phase_name                   290K
_cell_length_a                   6.56394(13)
_cell_length_b                   16.4021(4)
_cell_length_c                   13.1830(5)
_cell_angle_alpha                90.0
_cell_angle_beta                 90.0
_cell_angle_gamma                90.0
_cell_volume                     1419.31(7)
_symmetry_cell_setting           orthorhombic
_symmetry_space_group_name_H-M   'I m m a'
loop_
_symmetry_equiv_pos_site_id
_symmetry_equiv_pos_as_xyz
1 +x,+y,+z
2 -x,+y,+z
3 +x,-y+1/2,+z
4 -x,-y+1/2,+z
-1 -x,-y,-z
-2 +x,-y,-z
-3 -x,+y+1/2,-z
-4 +x,+y+1/2,-z
101 +x+1/2,+y+1/2,+z+1/2
102 -x+1/2,+y+1/2,+z+1/2
103 +x+1/2,-y,+z+1/2
104 -x+1/2,-y,+z+1/2
-101 -x+1/2,-y+1/2,-z+1/2
-102 +x+1/2,-y+1/2,-z+1/2
-103 -x+1/2,+y,-z+1/2
-104 +x+1/2,+y,-z+1/2

# ATOMIC COORDINATES AND DISPLACEMENT PARAMETERS


loop_
_atom_site_type_symbol
_atom_site_label
_atom_site_fract_x
_atom_site_fract_y
_atom_site_fract_z
_atom_site_occupancy
_atom_site_thermal_displace_type
_atom_site_U_iso_or_equiv
_atom_site_symmetry_multiplicity
Al Al1 0.25 0.25 0.75 1.0 Uiso 0.0232(13) 4
F F1 0.0 0.25 0.6907(4) 1.0 Uiso 0.0152(9) 4
O O1 0.1699(4) 0.16692(17) 0.84153(24) 1.0 Uiso 0.0152(9) 16
C C1 -0.1945(5) 0.0311(4) 0.9627(5) 1.0 Uiso 0.0303(16) 16
C C2 0.0 0.0616(4) 0.9432(6) 1.0 Uiso 0.0303(16) 8
C C3 0.0 0.1397(5) 0.8724(6) 1.0 Uiso 0.0303(16) 8

# If you change Z, be sure to change all 3 of the following
_chemical_formula_sum            'C8 Al F O4'
_chemical_formula_weight         206.06
_cell_formula_units_Z            4

# MOLECULAR GEOMETRY

loop_
_geom_bond_atom_site_label_1
_geom_bond_atom_site_label_2
_geom_bond_distance
_geom_bond_site_symmetry_1
_geom_bond_site_symmetry_2
_geom_bond_publ_flag
Al1 F1 1.8179(22) . 1_555 N
Al1 F1 1.8179(22) . -101_445 N
Al1 O1 1.8947(24) . 1_555 N
Al1 O1 1.8947(24) . 3_555 N
Al1 O1 1.8947(24) . -101_445 N
Al1 O1 1.8947(24) . -103_445 N
F1 Al1 1.8179(22) . 1_555 N
F1 Al1 1.8179(22) . 2_555 N
O1 Al1 1.8947(24) . 1_555 N
O1 C3 1.268(4) . 1_555 N
C1 C1 1.418(9) . -2_557 N
C1 C2 1.395(4) . 1_555 N
C2 C1 1.395(4) . 1_555 N
C2 C1 1.395(4) . 2_555 N
C2 C3 1.585(7) . 1_555 N
C3 O1 1.268(4) . 1_555 N
C3 O1 1.268(4) . 2_555 N
C3 C2 1.585(7) . 1_555 N

loop_
_geom_angle_atom_site_label_1
_geom_angle_atom_site_label_2
_geom_angle_atom_site_label_3
_geom_angle
_geom_angle_site_symmetry_1
_geom_angle_site_symmetry_2
_geom_angle_site_symmetry_3
_geom_angle_publ_flag
F1 Al1 F1 180.0 1_555 . -101_546 N
F1 Al1 O1 91.34(12) 1_555 . 1_555 N
F1 Al1 O1 91.34(12) 1_555 . 3_555 N
F1 Al1 O1 88.66(12) 1_555 . -101_566 N
F1 Al1 O1 88.66(12) 1_555 . -103_566 N
F1 Al1 O1 88.66(12) -101_566 . 1_555 N
F1 Al1 O1 88.66(12) -101_566 . 3_555 N
F1 Al1 O1 91.34(12) -101_566 . -101_566 N
F1 Al1 O1 91.34(12) -101_566 . -103_566 N
O1 Al1 O1 91.98(20) 1_555 . 3_555 N
O1 Al1 O1 180.0 1_555 . -101_566 N
O1 Al1 O1 88.02(20) 1_555 . -103_566 N
O1 Al1 O1 88.02(20) 3_555 . -101_566 N
O1 Al1 O1 180.0 3_555 . -103_566 N
O1 Al1 O1 91.98(20) -101_566 . -103_566 N
Al1 F1 Al1 129.03(29) 1_555 . 2_555 N
Al1 O1 C3 134.6(4) 1_555 . 1_555 N
C1 C1 C2 112.7(4) -2_557 . 1_555 N
C1 C2 C1 132.5(8) 1_555 . 2_555 N
C1 C2 C3 113.5(4) 1_555 . 1_555 N
C1 C2 C3 113.5(4) 2_555 . 1_555 N
O1 C3 O1 123.1(7) 1_555 . 2_555 N
O1 C3 C2 118.3(4) 1_555 . 1_555 N
O1 C3 C2 118.3(4) 2_555 . 1_555 N

# Powder diffraction data for histogram  1
#==============================================================================
# 9. INSTRUMENT CHARACTERIZATION

_exptl_special_details           
; ?
;

# if regions of the data are excluded, the reason(s) are supplied here:
_pd_proc_info_excluded_regions   
; ?
;

# The following item is used to identify the equipment used to record
# the powder pattern when the diffractogram was measured at a laboratory
# other than the authors' home institution, e.g. when neutron or synchrotron
# radiation is used.

_pd_instr_location               
; ?
;
_pd_calibration_special_details  
# description of the method used
# to calibrate the instrument
; ?
;

_diffrn_ambient_temperature      ?
_diffrn_source                   ?
_diffrn_source_target            ?
_diffrn_source_type              ?
_diffrn_measurement_device_type  ?
_diffrn_detector                 ?
_diffrn_detector_type            ? # make or model of detector

_pd_meas_scan_method             ? # options are 'step', 'cont',
# 'tof', 'fixed' or
# 'disp' (= dispersive)
_pd_meas_special_details         
;  ?
;

# The following two items identify the program(s) used (if appropriate).
_computing_data_collection       ?
_computing_data_reduction        ?

# Describe any processing performed on the data, prior to refinement.
# For example: a manual Lp correction or a precomputed absorption correction
_pd_proc_info_data_reduction     ?

# The following item is used for angular dispersive measurements only.

_diffrn_radiation_monochromator  ?

# The following items are used to define the size of the instrument.
# Not all distances are appropriate for all instrument types.

_pd_instr_dist_src/mono          ?
_pd_instr_dist_mono/spec         ?
_pd_instr_dist_src/spec          ?
_pd_instr_dist_spec/anal         ?
_pd_instr_dist_anal/detc         ?
_pd_instr_dist_spec/detc         ?

# 10. Specimen size and mounting information

# The next three fields give the specimen dimensions in mm.  The equatorial
# plane contains the incident and diffracted beam.

_pd_spec_size_axial              ? # perpendicular to
# equatorial plane

_pd_spec_size_equat              ? # parallel to
# scattering vector
# in transmission

_pd_spec_size_thick              ? # parallel to
# scattering vector
# in reflection

_pd_spec_mounting                
# This field should be
# used to give details of the
# container.
; ?
;

_pd_spec_mount_mode              ? # options are 'reflection'
# or 'transmission'

_pd_spec_shape                   ? # options are 'cylinder'
# 'flat_sheet' or 'irregular'


loop_
_atom_type_symbol
_atom_type_number_in_cell
_atom_type_scat_dispersion_real
_atom_type_scat_dispersion_imag
_atom_type_scat_Cromer_Mann_a1
_atom_type_scat_Cromer_Mann_a2
_atom_type_scat_Cromer_Mann_a3
_atom_type_scat_Cromer_Mann_a4
_atom_type_scat_Cromer_Mann_b1
_atom_type_scat_Cromer_Mann_b2
_atom_type_scat_Cromer_Mann_b3
_atom_type_scat_Cromer_Mann_b4
_atom_type_scat_Cromer_Mann_c
_atom_type_scat_source
Al 4.0 0.000 0.000 6.42020 3.03870 1.90020 0.74260 1.59360 31.5472 1.96460
85.0886 1.11510 International_Tables_Vol_C
F 4.0 0.000 0.000 3.53920 10.2825 2.64120 4.29440 1.51700 0.26150 1.02430
26.1476 0.27760 International_Tables_Vol_C
O 16.0 0.000 0.000 3.04850 13.2771 2.28680 5.70110 1.54630 0.32390 0.86700
32.9089 0.25080 International_Tables_Vol_C
C 32.0 0.000 0.000 2.31000 20.8439 1.02000 10.2075 1.58860 0.56870 0.86500
51.6512 0.21560 International_Tables_Vol_C
_diffrn_radiation_probe          x-ray
_diffrn_radiation_polarisn_ratio 0.95
_diffrn_radiation_wavelength     0.827154
_diffrn_radiation_type           ?
_pd_proc_ls_prof_R_factor        0.0754
_pd_proc_ls_prof_wR_factor       0.0996
_pd_proc_ls_prof_wR_expected     0.0447
_refine_ls_R_Fsqd_factor         0.30578

_pd_proc_ls_background_function  
;   GSAS Background function number 1 with  2 terms.
 Shifted Chebyshev function of 1st kind
      1:    0.00000     2:    0.00000    
;

_exptl_absorpt_process_details   
;   GSAS Absorption/surface roughness correction: function number 0
 No correction is applied.
;
_exptl_absorpt_correction_T_min  1.00000
_exptl_absorpt_correction_T_max  1.00000
# Extinction correction
_gsas_exptl_extinct_corr_T_min   1.00000
_gsas_exptl_extinct_corr_T_max   1.00000

_pd_proc_ls_profile_function     
;
 CW Profile function number 4 with  18 terms
 Pseudovoigt profile coefficients as parameterized in
 P. Thompson, D.E. Cox & J.B. Hastings (1987). J. Appl. Cryst.,20,79-83.
 Asymmetry correction of L.W. Finger, D.E. Cox & A. P. Jephcoat (1994).
 J. Appl. Cryst.,27,892-900.
 Microstrain broadening by P.W. Stephens,  (1999). J. Appl. Cryst.,32,281-289.
 #1(GU)   =    0.000 #2(GV)   =    0.000 #3(GW)   =    0.000
 #4(GP)   =    0.000 #5(LX)   =    0.866 #6(ptec) =     0.00
 #7(trns) =     0.00 #8(shft) =   0.0000 #9(sfec) =     0.00
 #10(S/L) =   0.0005 #11(H/L) =   0.0005 #12(eta) =   0.6528
 #13(S400 ) =  5.2E-02 #14(S040 ) =  9.4E-02 #15(S004 ) =  5.0E-01
 #16(S220 ) =  1.1E-02 #17(S202 ) =  9.7E-02 #18(S022 ) = -1.4E-01
 Peak tails are ignored  where the intensity is below 0.0005 times the peak
   Aniso. broadening axis   1.0   0.0   1.0
;
_pd_proc_ls_peak_cutoff          0.00050
_pd_proc_info_datetime           2014-08-28T12:45:10
_pd_calc_method                  'Rietveld Refinement'

#---- raw/calc data loop -----
_pd_meas_2theta_range_min        0.002
_pd_meas_2theta_range_max        150.01401
_pd_meas_2theta_range_inc        0.004
_pd_proc_2theta_range_min        0.05751
_pd_proc_2theta_range_max        150.0695
_pd_proc_2theta_range_inc        0.004

loop_
_pd_meas_intensity_total
_pd_proc_ls_weight
_pd_proc_intensity_bkg_calc
_pd_calc_intensity_total
8.0(28) 0.0 0.00 .
11.0(33) 0.0 0.00 .
14(4) 0.0 0.0 .
7.0(26) 0.0 0.00 .
12.0(35) 0.0 0.00 .
12.0(35) 0.0 0.00 .
8.0(28) 0.0 0.00 .
11.0(33) 0.0 0.00 .
12.0(35) 0.0 0.00 .
10.0(32) 0.0 0.00 .
8.0(28) 0.0 0.00 .
8.0(28) 0.0 0.00 .
14(4) 0.0 0.0 .
11.0(33) 0.0 0.00 .
19(4) 0.0 0.0 .
16(4) 0.0 0.0 .
12.0(35) 0.0 0.00 .
14(4) 0.0 0.0 .
15(4) 0.0 0.0 .
15(4) 0.0 0.0 .
13(4) 0.0 0.0 .
16(4) 0.0 0.0 .
18(4) 0.0 0.0 .
12.0(35) 0.0 0.00 .
17(4) 0.0 0.0 .
13(4) 0.0 0.0 .
13(4) 0.0 0.0 .
10.0(32) 0.0 0.00 .
7.0(26) 0.0 0.00 .
10.0(32) 0.0 0.00 .
18(4) 0.0 0.0 .
10.0(32) 0.0 0.00 .
11.0(33) 0.0 0.00 .
13(4) 0.0 0.0 .
11.0(33) 0.0 0.00 .
10.0(32) 0.0 0.00 .
13(4) 0.0 0.0 .
19(4) 0.0 0.0 .
19(4) 0.0 0.0 .
20(4) 0.0 0.0 .
23(5) 0.0 0.0 .
19(4) 0.0 0.0 .
22(5) 0.0 0.0 .
13(4) 0.0 0.0 .
12.0(35) 0.0 0.00 .
14(4) 0.0 0.0 .
19(4) 0.0 0.0 .
12.0(35) 0.0 0.00 .
15(4) 0.0 0.0 .
14(4) 0.0 0.0 .
20(4) 0.0 0.0 .
13(4) 0.0 0.0 .
11.0(33) 0.0 0.00 .
20(4) 0.0 0.0 .
14(4) 0.0 0.0 .
14(4) 0.0 0.0 .
14(4) 0.0 0.0 .
17(4) 0.0 0.0 .
8.0(28) 0.0 0.00 .
15(4) 0.0 0.0 .
12.0(35) 0.0 0.00 .
18(4) 0.0 0.0 .
18(4) 0.0 0.0 .
16(4) 0.0 0.0 .
15(4) 0.0 0.0 .
12.0(35) 0.0 0.00 .
12.0(35) 0.0 0.00 .
15(4) 0.0 0.0 .
14(4) 0.0 0.0 .
11.0(33) 0.0 0.00 .
14(4) 0.0 0.0 .
14(4) 0.0 0.0 .
16(4) 0.0 0.0 .
10.0(32) 0.0 0.00 .
19(4) 0.0 0.0 .
15(4) 0.0 0.0 .
10.0(32) 0.0 0.00 .
17(4) 0.0 0.0 .
17(4) 0.0 0.0 .
17(4) 0.0 0.0 .
16(4) 0.0 0.0 .
15(4) 0.0 0.0 .
12.0(35) 0.0 0.00 .
8.0(28) 0.0 0.00 .
11.0(33) 0.0 0.00 .
15(4) 0.0 0.0 .
10.0(32) 0.0 0.00 .
13(4) 0.0 0.0 .
19(4) 0.0 0.0 .
14(4) 0.0 0.0 .
10.0(32) 0.0 0.00 .
19(4) 0.0 0.0 .
15(4) 0.0 0.0 .
10.0(32) 0.0 0.00 .
19(4) 0.0 0.0 .
14(4) 0.0 0.0 .
17(4) 0.0 0.0 .
14(4) 0.0 0.0 .
14(4) 0.0 0.0 .
17(4) 0.0 0.0 .
11.0(33) 0.0 0.00 .
19(4) 0.0 0.0 .
17(4) 0.0 0.0 .
20(4) 0.0 0.0 .
15(4) 0.0 0.0 .
21(5) 0.0 0.0 .
22(5) 0.0 0.0 .
30(5) 0.0 0.0 .
44(7) 0.0 0.0 .
64(8) 0.0 0.0 .
83(9) 0.0 0.0 .
98(10) 0.0 0.0 .
142(12) 0.0 0.0 .
179(13) 0.0 0.0 .
252(16) 0.0 0.0 .
263(16) 0.0 0.0 .
389(20) 0.0 0.0 .
492(22) 0.0 0.0 .
610(25) 0.0 0.0 .
725(27) 0.0 0.0 .
903(30) 0.0 0.0 .
981(31) 0.0 0.0 .
1026(32) 0.0 0.0 .
1010(32) 0.0 0.0 .
999(32) 0.0 0.0 .
999(32) 0.0 0.0 .
944(31) 0.0 0.0 .
953(31) 0.0 0.0 .
953(31) 0.0 0.0 .
941(31) 0.0 0.0 .
1018(32) 0.0 0.0 .
981(31) 0.0 0.0 .
932(31) 0.0 0.0 .
904(30) 0.0 0.0 .
916(30) 0.0 0.0 .
881(30) 0.0 0.0 .
855(29) 0.0 0.0 .
841(29) 0.0 0.0 .
805(28) 0.0 0.0 .
744(27) 0.0 0.0 .
724(27) 0.0 0.0 .
699(26) 0.0 0.0 .
633(25) 0.0 0.0 .
596(24) 0.0 0.0 .
570(24) 0.0 0.0 .
519(23) 0.0 0.0 .
516(23) 0.0 0.0 .
521(23) 0.0 0.0 .
425(21) 0.0 0.0 .
457(21) 0.0 0.0 .
424(21) 0.0 0.0 .
414(20) 0.0 0.0 .
404(20) 0.0 0.0 .
393(20) 0.0 0.0 .
396(20) 0.0 0.0 .
366(19) 0.0 0.0 .
363(19) 0.0 0.0 .
356(19) 0.0 0.0 .
366(19) 0.0 0.0 .
364(19) 0.0 0.0 .
373(19) 0.0 0.0 .
346(19) 0.0 0.0 .
373(19) 0.0 0.0 .
354(19) 0.0 0.0 .
350(19) 0.0 0.0 .
346(19) 0.0 0.0 .
342(18) 0.0 0.0 .
339(18) 0.0 0.0 .
383(20) 0.0 0.0 .
323(18) 0.0 0.0 .
341(18) 0.0 0.0 .
333(18) 0.0 0.0 .
348(19) 0.0 0.0 .
367(19) 0.0 0.0 .
345(19) 0.0 0.0 .
349(19) 0.0 0.0 .
381(20) 0.0 0.0 .
354(19) 0.0 0.0 .
392(20) 0.0 0.0 .
381(20) 0.0 0.0 .
355(19) 0.0 0.0 .
363(19) 0.0 0.0 .
377(19) 0.0 0.0 .
366(19) 0.0 0.0 .
366(19) 0.0 0.0 .
373(19) 0.0 0.0 .
378(19) 0.0 0.0 .
395(20) 0.0 0.0 .
372(19) 0.0 0.0 .
416(20) 0.0 0.0 .
393(20) 0.0 0.0 .
392(20) 0.0 0.0 .
414(20) 0.0 0.0 .
401(20) 0.0 0.0 .
419(20) 0.0 0.0 .
427(21) 0.0 0.0 .
392(20) 0.0 0.0 .
410(20) 0.0 0.0 .
418(20) 0.0 0.0 .
418(20) 0.0 0.0 .
429(21) 0.0 0.0 .
427(21) 0.0 0.0 .
418(20) 0.0 0.0 .
460(21) 0.0 0.0 .
444(21) 0.0 0.0 .
436(21) 0.0 0.0 .
421(21) 0.0 0.0 .
452(21) 0.0 0.0 .
434(21) 0.0 0.0 .
447(21) 0.0 0.0 .
478(22) 0.0 0.0 .
471(22) 0.0 0.0 .
478(22) 0.0 0.0 .
459(21) 0.0 0.0 .
472(22) 0.0 0.0 .
471(22) 0.0 0.0 .
496(22) 0.0 0.0 .
506(22) 0.0 0.0 .
461(21) 0.0 0.0 .
500(22) 0.0 0.0 .
502(22) 0.0 0.0 .
530(23) 0.0 0.0 .
542(23) 0.0 0.0 .
521(23) 0.0 0.0 .
580(24) 0.0 0.0 .
574(24) 0.0 0.0 .
548(23) 0.0 0.0 .
560(24) 0.0 0.0 .
564(24) 0.0 0.0 .
566(24) 0.0 0.0 .
625(25) 0.0 0.0 .
641(25) 0.0 0.0 .
689(26) 0.0 0.0 .
822(29) 0.0 0.0 .
913(30) 0.0 0.0 .
936(31) 0.0 0.0 .
1143(34) 0.0 0.0 .
1287(36) 0.0 0. .
1443(38) 0.0 0. .
1545(39) 0.0 0. .
1740(42) 0.0 0. .
1895(44) 0.0 0. .
2130(46) 0.0 0. .
2373(49) 0.0 0. .
2683(52) 0.0 0. .
2911(54) 0.0 0. .
3198(57) 0.0 0. .
3662(61) 0.0 0. .
3728(61) 0.0 0. .
4433(67) 0.0 0. .
4793(69) 0.0 0. .
5273(73) 0.0 0. .
5911(77) 0.0 0. .
6629(81) 0.0 0. .
7348(86) 0.0 0. .
8191(91) 0.0 0. .
9078(95) 0.0 0. .
9816(99) 0.0 0. .
10610(100) 0.0 0. .
11460(110) 0.0 0. .
12610(110) 0.0 0. .
13170(120) 0.0 0. .
13750(120) 0.0 0. .
14390(120) 0.0 0. .
14980(120) 0.0 0. .
15320(120) 0.0 0. .
15680(130) 0.0 0. .
16280(130) 0.0 0. .
16020(130) 0.0 0. .
15840(130) 0.0 0. .
16270(130) 0.0 0. .
16520(130) 0.0 0. .
16250(130) 0.0 0. .
16520(130) 0.0 0. .
16740(130) 0.0 0. .
16430(130) 0.0 0. .
16730(130) 0.0 0. .
16760(130) 0.0 0. .
17200(130) 0.0 0. .
16980(130) 0.0 0. .
17250(130) 0.0 0. .
16890(130) 0.0 0. .
17090(130) 0.0 0. .
16690(130) 0.0 0. .
17080(130) 0.0 0. .
17770(130) 0.0 0. .
17500(130) 0.0 0. .
16950(130) 0.0 0. .
17080(130) 0.0 0. .
17440(130) 0.0 0. .
17620(130) 0.0 0. .
17370(130) 0.0 0. .
17230(130) 0.0 0. .
17190(130) 0.0 0. .
16780(130) 0.0 0. .
16680(130) 0.0 0. .
17150(130) 0.0 0. .
16330(130) 0.0 0. .
16490(130) 0.0 0. .
16510(130) 0.0 0. .
1