
#######################################################################
#
#                 Cambridge Crystallographic Data Centre
#                                CCDC
#
#######################################################################
#
# If this CIF has been generated from an entry in the Cambridge
# Structural Database, then it will include bibliographic, chemical,
# crystal, experimental, refinement or atomic coordinate data resulting
# from the CCDC's data processing and validation procedures.
#
#######################################################################

data_CSD_CIF_LIKSIH
_audit_creation_date 1995-05-01
_audit_creation_method CSD-ConQuest-V1
_database_code_CSD LIKSIH
_database_code_depnum_ccdc_archive 'CCDC 110456'
_database_code_depnum_ccdc_fiz 'CSD 401085'
_chemical_formula_sum 'H6 B3 N3'
_chemical_formula_moiety
;
H6 B3 N3
;
_journal_coden_Cambridge 48
_journal_volume 127
_journal_year 1994
_journal_page_first 1887
_journal_name_full 'Chem.Ber. '
loop_
_publ_author_name
"R.Boese"
"A.H.Maulitz"
"P.Stellberg"
_chemical_name_systematic
;
Borazine
;
_chemical_name_common
;
Teaching Subset: Fundamental Chemistry, Symmetry
;
_cell_volume    486.837
_exptl_crystal_density_diffrn 1.089
_diffrn_ambient_temperature 160
#These two values have been output from a single CSD field.
_refine_ls_R_factor_gt 0.052
_refine_ls_wR_factor_gt 0.052
_symmetry_cell_setting tetragonal
_symmetry_space_group_name_H-M 'P 43 21 2'
_symmetry_Int_Tables_number 96
loop_
_symmetry_equiv_pos_site_id
_symmetry_equiv_pos_as_xyz
1 x,y,z
2 1/2-y,1/2+x,3/4+z
3 1/2+x,1/2-y,1/4-z
4 -x,-y,1/2+z
5 y,x,-z
6 1/2+y,1/2-x,1/4+z
7 1/2-x,1/2+y,3/4-z
8 -y,-x,1/2-z
_cell_length_a 5.4626(8)
_cell_length_b 5.4626(8)
_cell_length_c 16.3149(38)
_cell_angle_alpha 90
_cell_angle_beta 90
_cell_angle_gamma 90
_cell_formula_units_Z 4
loop_
_atom_type_symbol
_atom_type_radius_bond
H 0.23
B 0.83
N 0.68
loop_
_atom_site_label
_atom_site_type_symbol
_atom_site_fract_x
_atom_site_fract_y
_atom_site_fract_z
N1 N 0.54112(13) 0.54112(13) 0.00000
N2 N 0.16599(14) 0.36905(16) 0.05718(5)
B1 B 0.34705(17) 0.55833(18) 0.05829(5)
B2 B 0.17085(18) 0.17085(18) 0.00000
H1 H 0.6559(33) 0.6559(33) 0.00000
H2 H 0.3363(29) 0.7153(31) 0.1009(10)
H3 H 0.0422(35) 0.3783(33) 0.0955(12)
H4 H 0.0221(35) 0.0221(35) 0.00000
N2D N 0.36905(14) 0.16599(16) -0.05718(5)
B1D B 0.55833(17) 0.34705(18) -0.05829(5)
H2D H 0.7153(29) 0.3363(31) -0.1009(10)
H3D H 0.3783(35) 0.0422(33) -0.0955(12)
#END
