####################################################################### 
# 
# This file contains crystal structure data downloaded from the 
# Cambridge Structural Database (CSD) hosted by the Cambridge 
# Crystallographic Data Centre (CCDC).
# 
# Full information about CCDC data access policies and citation 
# guidelines are available at http://www.ccdc.cam.ac.uk/access/V1 
# 
# Audit and citation data items may have been added by the CCDC. 
# Please retain this information to preserve the provenance of 
# this file and to allow appropriate attribution of the data. 
# 
#######################################################################

data_publication_text2
_audit_block_doi                 10.5517/cc109d4v
_database_code_depnum_ccdc_archive 'CCDC 932546'
loop_
_citation_id
_citation_doi
_citation_year
1 10.1021/ic400825b 2013
_audit_update_record             
;
2013-04-04 deposited with the CCDC.	2024-07-11 downloaded from the CCDC.
;
_chemical_name_mineral           ??
_cell_length_a                   6.61686(46)
_cell_length_b                   9.43004(62)
_cell_length_c                   9.46418(57)
_cell_angle_alpha                107.5773(37)
_cell_angle_beta                 107.7250(74)
_cell_angle_gamma                93.2088(49)
_cell_volume                     529.080(67)
_symmetry_cell_setting           triclinic
_symmetry_space_group_name_H-M   'P -1'
_symmetry_int_tables_number      2
_chemical_absolute_configuration ?
loop_
_symmetry_equiv_pos_as_xyz
'-x, -y, -z'
'x, y, z'
loop_
_atom_site_label
_atom_site_type_symbol
_atom_site_symmetry_multiplicity
_atom_site_fract_x
_atom_site_fract_y
_atom_site_fract_z
_atom_site_occupancy
_atom_site_B_iso_or_equiv
Al1 Al 2 -1 0 -1 1 0.51(35)
Al2 Al 2 -0.5 0 -1 1 0.51(35)
O1 O 2 -0.7467(40) -0.0671(22) -0.9830(24) 1 1.20(27)
O2 O 2 -0.5053(32) 0.1784(25) -0.8264(21) 1 1.20(27)
O3 O 2 -0.8204(25) 0.1704(25) -0.8336(21) 1 1.20(27)
O4 O 2 -1.0375(16) -0.0885(23) -0.8330(13) 1 1.20(27)
O5 O 2 -0.3617(17) -0.1044(23) -0.8453(17) 1 1.20(27)
C1 C 2 -0.6362(26) 0.2320(24) -0.7693(18) 1 0.11(36)
C2 C 2 -0.5569(21) 0.3470(18) -0.6067(16) 1 0.11(36)
C3 C 2 -0.3497(26) 0.4367(20) -0.6087(19) 1 0.11(36)
C4 C 2 -0.7206(25) 0.4388(19) -0.5533(18) 1 0.11(36)
C5 C 2 -0.1730(23) -0.1096(18) -0.76874(98) 1 0.11(36)
C6 C 2 -0.1192(24) -0.1533(16) -0.6253(14) 1 0.11(36)
C7 C 2 -0.2514(22) -0.0489(17) -0.5503(25) 1 0.11(36)
C8 C 2 -0.1182(22) 0.0929(18) -0.4475(25) 1 0.11(36)
OW O 2 0.8303(26) 0.4202(19) 0.9735(21) 1 2.89(82)
_chemical_formula_moiety         'C8 Al H11 O5, O'
_chemical_formula_sum            'C8 Al O6'
_chemical_formula_weight         219.06
_exptl_crystal_recrystallization_method 'water + dimetylformamide'
_exptl_crystal_colour            white
_cell_measurement_temperature    298
_diffrn_ambient_temperature      298
_diffrn_ambient_pressure         1013
_diffrn_radiation_probe          x-ray
_diffrn_radiation_type           synchrotron
_diffrn_radiation_wavelength     0.825986
_diffrn_source                   synchrotron
_diffrn_source_type              'PETRA P08'
_diffrn_measured_fraction_theta_full 45


