
#######################################################################
#
#                 Cambridge Crystallographic Data Centre
#                                CCDC
#
#######################################################################
#
# If this CIF has been generated from an entry in the Cambridge
# Structural Database, then it will include bibliographic, chemical,
# crystal, experimental, refinement or atomic coordinate data resulting
# from the CCDC's data processing and validation procedures.
#
#######################################################################

data_CSD_CIF_MUZKAU
_audit_creation_date 2010-11-04
_audit_creation_method CSD-ConQuest-V1
_database_code_CSD MUZKAU
_database_code_depnum_ccdc_archive 'CCDC 745871'
_chemical_formula_sum 'C4 O4 Pb1'
_chemical_formula_moiety
;
(C4 O4 Pb1)n
;
_journal_coden_Cambridge 29
_journal_volume 636
_journal_year 2010
_journal_page_first 1026
_journal_name_full 'Z.Anorg.Allg.Chem. '
loop_
_publ_author_name
"A.Schuy"
"I.Stein"
"U.Ruschewitz"
_chemical_name_systematic
;
catena-[(\m~6~-Acetylenedicarboxylato)-lead(ii)]
;
_chemical_name_common
;
Teaching Subset: MOFs
;
_cell_volume    547.749
_exptl_crystal_colour 'colorless'
_exptl_crystal_density_diffrn 3.871
_exptl_crystal_description 'plate'
_diffrn_ambient_temperature 293
#These two values have been output from a single CSD field.
_refine_ls_R_factor_gt 0.0241
_refine_ls_wR_factor_gt 0.0241
_symmetry_cell_setting tetragonal
_symmetry_space_group_name_H-M 'I 41/a m d'
_symmetry_Int_Tables_number 141
loop_
_symmetry_equiv_pos_site_id
_symmetry_equiv_pos_as_xyz
1 x,y,z
2 -x,1/2-y,z
3 x,-y,-z
4 -x,1/2+y,-z
5 1/4-y,1/4-x,3/4-z
6 1/4+y,3/4+x,1/4-z
7 1/4+y,1/4-x,3/4+z
8 1/4-y,3/4+x,1/4+z
9 1/2+x,1/2+y,1/2+z
10 1/2-x,-y,1/2+z
11 1/2+x,1/2-y,1/2-z
12 1/2-x,y,1/2-z
13 3/4-y,3/4-x,1/4-z
14 3/4+y,1/4+x,3/4-z
15 3/4+y,3/4-x,1/4+z
16 3/4-y,1/4+x,3/4+z
17 -x,-y,-z
18 x,-1/2+y,-z
19 -x,y,z
20 x,-1/2-y,z
21 -1/4+y,-1/4+x,-3/4+z
22 -1/4-y,-3/4-x,-1/4+z
23 -1/4-y,-1/4+x,-3/4-z
24 -1/4+y,-3/4-x,-1/4-z
25 -1/2-x,-1/2-y,-1/2-z
26 -1/2+x,y,-1/2-z
27 -1/2-x,-1/2+y,-1/2+z
28 -1/2+x,-y,-1/2+z
29 -3/4+y,-3/4+x,-1/4+z
30 -3/4-y,-1/4-x,-3/4+z
31 -3/4-y,-3/4+x,-1/4-z
32 -3/4+y,-1/4-x,-3/4-z
_cell_length_a 7.2837(11)
_cell_length_b 7.2837(11)
_cell_length_c 10.3247(17)
_cell_angle_alpha 90
_cell_angle_beta 90
_cell_angle_gamma 90
_cell_formula_units_Z 4
loop_
_atom_type_symbol
_atom_type_radius_bond
C 0.68
O 0.68
Pb 1.68
loop_
_atom_site_label
_atom_site_type_symbol
_atom_site_fract_x
_atom_site_fract_y
_atom_site_fract_z
Pb1 Pb 0.50000 0.25000 0.12500
O1 O 0.50000 0.6012(12) 0.1188(10)
C1 C 0.50000 0.75000 0.1762(13)
C2 C 0.50000 0.75000 0.3170(15)
Pb1B Pb 0.50000 0.75000 -0.12500
Pb1* Pb 0.50000 1.25000 0.12500
Pb1D Pb 1.00000 0.75000 0.62500
Pb1B* Pb 0.50000 0.75000 0.87500
Pb1D* Pb 0.00000 0.75000 0.62500
O1A O 0.50000 0.8988(12) 0.1188(10)
O1D O 0.64880 0.7500(12) 0.6312(10)
O1M O 0.35120 0.7500(12) 0.6312(10)
O1A* O 0.50000 -0.1012(12) 0.1188(10)
O1B O 0.50000 0.3988(12) -0.1188(10)
O1C O 0.50000 0.1012(12) -0.1188(10)
O1E O 0.85120 0.2500(12) 0.1312(10)
O1G O 0.64880 0.2500(12) 0.3688(10)
O1L O 0.14880 0.2500(12) 0.1312(10)
O1N O 0.35120 0.2500(12) 0.3688(10)
C1D C 0.50000 0.75000 0.5738(13)
C2D C 0.50000 0.75000 0.4330(15)
#END
