
#######################################################################
#
#                 Cambridge Crystallographic Data Centre
#                                CCDC
#
#######################################################################
#
# If this CIF has been generated from an entry in the Cambridge
# Structural Database, then it will include bibliographic, chemical,
# crystal, experimental, refinement or atomic coordinate data resulting
# from the CCDC's data processing and validation procedures.
#
#######################################################################

data_CSD_CIF_NEYBUQ01
_audit_creation_date 2013-05-23
_audit_creation_method CSD-ConQuest-V1
_database_code_CSD NEYBUQ01
_database_code_depnum_ccdc_archive 'CCDC 874057'
_chemical_formula_sum 'H18 B3 Co1 F12 N6'
_chemical_formula_moiety
;
H18 Co1 N6 3+,3(B1 F4 1-)
;
_journal_coden_Cambridge 211
_journal_volume 66
_journal_year 2013
_journal_page_first 1238
_journal_name_full 'J.Coord.Chem. '
loop_
_publ_author_name
"N.Gorska"
"A.Inaba"
"Y.Hirao"
"E.Mikuli"
_chemical_name_systematic
;
Hexa-ammine-cobalt(iii) tris(tetrafluoroborate)
;
_chemical_name_common
;
Teaching Subset: Fundamental Chemistry, Symmetry
;
_cell_volume   1422.386
_exptl_crystal_colour 'orange'
_exptl_crystal_density_diffrn 1.969
_exptl_crystal_description 'prism'
_diffrn_ambient_temperature 293
_refine_special_details
;
The anions are disordered.

;
#These two values have been output from a single CSD field.
_refine_ls_R_factor_gt 0.0639
_refine_ls_wR_factor_gt 0.0639
_symmetry_cell_setting cubic
_symmetry_space_group_name_H-M 'F m -3 m'
_symmetry_Int_Tables_number 225
loop_
_symmetry_equiv_pos_site_id
_symmetry_equiv_pos_as_xyz
1 x,y,z
2 y,x,-z
3 x,-z,y
4 -z,y,x
5 z,y,-x
6 -z,x,-y
7 x,z,-y
8 y,-z,-x
9 y,-x,z
10 x,-y,-z
11 -x,-y,z
12 -y,-x,-z
13 -z,-y,-x
14 z,-x,-y
15 x,1/2+y,1/2+z
16 y,1/2+x,1/2-z
17 x,1/2-z,1/2+y
18 -z,1/2+y,1/2+x
19 z,1/2+y,1/2-x
20 -z,1/2+x,1/2-y
21 x,1/2+z,1/2-y
22 y,1/2-z,1/2-x
23 y,1/2-x,1/2+z
24 x,1/2-y,1/2-z
25 -x,1/2-y,1/2+z
26 -y,1/2-x,1/2-z
27 -z,1/2-y,1/2-x
28 z,1/2-x,1/2-y
29 1/2+x,y,1/2+z
30 1/2+y,x,1/2-z
31 1/2+x,-z,1/2+y
32 1/2-z,y,1/2+x
33 1/2+z,y,1/2-x
34 1/2-z,x,1/2-y
35 1/2+x,z,1/2-y
36 1/2+y,-z,1/2-x
37 1/2+y,-x,1/2+z
38 1/2+x,-y,1/2-z
39 1/2-x,-y,1/2+z
40 1/2-y,-x,1/2-z
41 1/2-z,-y,1/2-x
42 1/2+z,-x,1/2-y
43 1/2+x,1/2+y,z
44 1/2+y,1/2+x,-z
45 1/2+x,1/2-z,y
46 1/2-z,1/2+y,x
47 1/2+z,1/2+y,-x
48 1/2-z,1/2+x,-y
49 1/2+x,1/2+z,-y
50 1/2+y,1/2-z,-x
51 1/2+y,1/2-x,z
52 1/2+x,1/2-y,-z
53 1/2-x,1/2-y,z
54 1/2-y,1/2-x,-z
55 1/2-z,1/2-y,-x
56 1/2+z,1/2-x,-y
57 -x,-z,-y
58 -y,z,-x
59 -z,-x,y
60 -y,-z,x
61 -x,z,y
62 z,-y,x
63 -x,y,-z
64 -y,x,z
65 y,z,x
66 z,x,y
67 -x,1/2-z,1/2-y
68 -y,1/2+z,1/2-x
69 -z,1/2-x,1/2+y
70 -y,1/2-z,1/2+x
71 -x,1/2+z,1/2+y
72 z,1/2-y,1/2+x
73 -x,1/2+y,1/2-z
74 -y,1/2+x,1/2+z
75 y,1/2+z,1/2+x
76 z,1/2+x,1/2+y
77 1/2-x,-z,1/2-y
78 1/2-y,z,1/2-x
79 1/2-z,-x,1/2+y
80 1/2-y,-z,1/2+x
81 1/2-x,z,1/2+y
82 1/2+z,-y,1/2+x
83 1/2-x,y,1/2-z
84 1/2-y,x,1/2+z
85 1/2+y,z,1/2+x
86 1/2+z,x,1/2+y
87 1/2-x,1/2-z,-y
88 1/2-y,1/2+z,-x
89 1/2-z,1/2-x,y
90 1/2-y,1/2-z,x
91 1/2-x,1/2+z,y
92 1/2+z,1/2-y,x
93 1/2-x,1/2+y,-z
94 1/2-y,1/2+x,z
95 1/2+y,1/2+z,x
96 1/2+z,1/2+x,y
97 -x,-y,-z
98 -y,-x,z
99 -x,z,-y
100 z,-y,-x
101 -z,-y,x
102 z,-x,y
103 -x,-z,y
104 -y,z,x
105 -y,x,-z
106 -x,y,z
107 x,y,-z
108 y,x,z
109 z,y,x
110 -z,x,y
111 -x,-1/2-y,-1/2-z
112 -y,-1/2-x,-1/2+z
113 -x,-1/2+z,-1/2-y
114 z,-1/2-y,-1/2-x
115 -z,-1/2-y,-1/2+x
116 z,-1/2-x,-1/2+y
117 -x,-1/2-z,-1/2+y
118 -y,-1/2+z,-1/2+x
119 -y,-1/2+x,-1/2-z
120 -x,-1/2+y,-1/2+z
121 x,-1/2+y,-1/2-z
122 y,-1/2+x,-1/2+z
123 z,-1/2+y,-1/2+x
124 -z,-1/2+x,-1/2+y
125 -1/2-x,-y,-1/2-z
126 -1/2-y,-x,-1/2+z
127 -1/2-x,z,-1/2-y
128 -1/2+z,-y,-1/2-x
129 -1/2-z,-y,-1/2+x
130 -1/2+z,-x,-1/2+y
131 -1/2-x,-z,-1/2+y
132 -1/2-y,z,-1/2+x
133 -1/2-y,x,-1/2-z
134 -1/2-x,y,-1/2+z
135 -1/2+x,y,-1/2-z
136 -1/2+y,x,-1/2+z
137 -1/2+z,y,-1/2+x
138 -1/2-z,x,-1/2+y
139 -1/2-x,-1/2-y,-z
140 -1/2-y,-1/2-x,z
141 -1/2-x,-1/2+z,-y
142 -1/2+z,-1/2-y,-x
143 -1/2-z,-1/2-y,x
144 -1/2+z,-1/2-x,y
145 -1/2-x,-1/2-z,y
146 -1/2-y,-1/2+z,x
147 -1/2-y,-1/2+x,-z
148 -1/2-x,-1/2+y,z
149 -1/2+x,-1/2+y,-z
150 -1/2+y,-1/2+x,z
151 -1/2+z,-1/2+y,x
152 -1/2-z,-1/2+x,y
153 x,z,y
154 y,-z,x
155 z,x,-y
156 y,z,-x
157 x,-z,-y
158 -z,y,-x
159 x,-y,z
160 y,-x,-z
161 -y,-z,-x
162 -z,-x,-y
163 x,-1/2+z,-1/2+y
164 y,-1/2-z,-1/2+x
165 z,-1/2+x,-1/2-y
166 y,-1/2+z,-1/2-x
167 x,-1/2-z,-1/2-y
168 -z,-1/2+y,-1/2-x
169 x,-1/2-y,-1/2+z
170 y,-1/2-x,-1/2-z
171 -y,-1/2-z,-1/2-x
172 -z,-1/2-x,-1/2-y
173 -1/2+x,z,-1/2+y
174 -1/2+y,-z,-1/2+x
175 -1/2+z,x,-1/2-y
176 -1/2+y,z,-1/2-x
177 -1/2+x,-z,-1/2-y
178 -1/2-z,y,-1/2-x
179 -1/2+x,-y,-1/2+z
180 -1/2+y,-x,-1/2-z
181 -1/2-y,-z,-1/2-x
182 -1/2-z,-x,-1/2-y
183 -1/2+x,-1/2+z,y
184 -1/2+y,-1/2-z,x
185 -1/2+z,-1/2+x,-y
186 -1/2+y,-1/2+z,-x
187 -1/2+x,-1/2-z,-y
188 -1/2-z,-1/2+y,-x
189 -1/2+x,-1/2-y,z
190 -1/2+y,-1/2-x,-z
191 -1/2-y,-1/2-z,-x
192 -1/2-z,-1/2-x,-y
_cell_length_a 11.2462(8)
_cell_length_b 11.2462(8)
_cell_length_c 11.2462(8)
_cell_angle_alpha 90
_cell_angle_beta 90
_cell_angle_gamma 90
_cell_formula_units_Z 4
loop_
_atom_type_symbol
_atom_type_radius_bond
B 0.83
Co 1.26
F 0.64
N 0.68
loop_
_atom_site_label
_atom_site_type_symbol
_atom_site_fract_x
_atom_site_fract_y
_atom_site_fract_z
Co1 Co 0.00000 0.00000 0.00000
N1 N 0.00000 0.1750(4) 0.00000
B1 B 0.25000 0.25000 0.25000
F1 F 0.1847(6) 0.1847(6) 0.1847(6)
F2? F 0.25000 0.1201(7) 0.25000
F3? F 0.0722(4) 0.0722(4) 0.4278(4)
B2? B 0.00000 0.00000 0.50000
N1VE N 0.00000 0.0000(4) 0.17500
N1WE N 0.17500 0.0000(4) 0.00000
N1XE N 0.00000 0.0000(4) -0.17500
N1BF N 0.00000 -0.1750(4) 0.00000
N1DF N -0.17500 0.0000(4) 0.00000
F1U F 0.1847(6) 0.3153(6) 0.3153(6)
F1GA F 0.3153(6) 0.1847(6) 0.3153(6)
F1ZA F 0.3153(6) 0.3153(6) 0.1847(6)
#END
