
#######################################################################
#
#                 Cambridge Crystallographic Data Centre
#                                CCDC
#
#######################################################################
#
# If this CIF has been generated from an entry in the Cambridge
# Structural Database, then it will include bibliographic, chemical,
# crystal, experimental, refinement or atomic coordinate data resulting
# from the CCDC's data processing and validation procedures.
#
#######################################################################

data_CSD_CIF_NIDQEX
_audit_creation_date 2007-06-20
_audit_creation_method CSD-ConQuest-V1
_database_code_CSD NIDQEX
_database_code_depnum_ccdc_archive 'CCDC 622420'
_chemical_formula_sum 'C1 Co1 N2'
_chemical_formula_moiety
;
(C1 Co1 N2)n
;
_journal_coden_Cambridge 9
_journal_volume 46
_journal_year 2007
_journal_page_first 2204
_journal_name_full 'Inorg.Chem. '
loop_
_publ_author_name
"M.Krott"
"Xiaohui Liu"
"B.P.T.Fokwa"
"M.Speldrich"
"H.Lueken"
"R.Dronskowski"
_chemical_name_systematic
;
catena-[(\m~6~-Carbodiimido)-cobalt(ii)]
;
_chemical_name_common
;
Teaching Subset: Fundamental Chemistry, Symmetry
;
_cell_volume     83.945
_exptl_crystal_colour 'red'
_exptl_crystal_density_diffrn 3.915
_exptl_special_details
;
magnetic properties
isotypic with the Ni analogue

;
_exptl_crystal_description 'plate'
_diffrn_ambient_temperature 293
#These two values have been output from a single CSD field.
_refine_ls_R_factor_gt 0.0158
_refine_ls_wR_factor_gt 0.0158
_symmetry_cell_setting hexagonal
_symmetry_space_group_name_H-M 'P 63/m m c'
_symmetry_Int_Tables_number 194
loop_
_symmetry_equiv_pos_site_id
_symmetry_equiv_pos_as_xyz
1 x,y,z
2 -y,x-y,z
3 -x+y,-x,z
4 y,-x+y,1/2+z
5 x-y,x,1/2+z
6 y,x,-z
7 -x+y,y,1/2-z
8 x,x-y,1/2-z
9 -x,-y,1/2+z
10 x-y,-y,-z
11 -x,-x+y,-z
12 -y,-x,1/2-z
13 -x,-y,-z
14 y,-x+y,-z
15 x-y,x,-z
16 -y,x-y,-1/2-z
17 -x+y,-x,-1/2-z
18 -y,-x,z
19 x-y,-y,-1/2+z
20 -x,-x+y,-1/2+z
21 x,y,-1/2-z
22 -x+y,y,z
23 x,x-y,z
24 y,x,-1/2+z
_cell_length_a 3.2129(4)
_cell_length_b 3.2129(4)
_cell_length_c 9.3901(16)
_cell_angle_alpha 90
_cell_angle_beta 90
_cell_angle_gamma 120
_cell_formula_units_Z 2
loop_
_atom_type_symbol
_atom_type_radius_bond
C 0.68
Co 1.33
N 0.68
loop_
_atom_site_label
_atom_site_type_symbol
_atom_site_fract_x
_atom_site_fract_y
_atom_site_fract_z
Co1 Co 0.00000 0.00000 0.50000
N1 N -0.33330 -0.66670 0.3805(2)
C1 C -0.33330 -0.66670 0.25000
Co1* Co -1.00000 -1.00000 0.50000
Co1** Co 0.00000 -1.00000 0.50000
Co1C Co -1.00000 -1.00000 0.00000
Co1C* Co 0.00000 -1.00000 0.00000
Co1C** Co 0.00000 0.00000 0.00000
N1F N -0.33340 -0.66670 0.1195(2)
N1* N -0.33330 0.33330 0.3805(2)
N1** N 0.66670 0.33330 0.3805(2)
N1E N -0.66670 -0.33330 0.6195(2)
N1E* N 0.33330 -0.33330 0.6195(2)
N1E** N 0.33330 0.66670 0.6195(2)
#END
