####################################################################### 
# 
# This file contains crystal structure data downloaded from the 
# Cambridge Structural Database (CSD) hosted by the Cambridge 
# Crystallographic Data Centre (CCDC).
# 
# Full information about CCDC data access policies and citation 
# guidelines are available at http://www.ccdc.cam.ac.uk/access/V1 
# 
# Audit and citation data items may have been added by the CCDC. 
# Please retain this information to preserve the provenance of 
# this file and to allow appropriate attribution of the data. 
# 
#######################################################################

data_2
_audit_block_doi                 10.5517/cc95c3x
_database_code_depnum_ccdc_archive 'CCDC 273268'
loop_
_citation_id
_citation_doi
_citation_year
1 10.1002/jccs.200700085 2007
_audit_update_record             
;
2005-05-27 deposited with the CCDC.	2024-07-11 downloaded from the CCDC.
;

_chemical_formula_structural     (C16H22AgNO3S2.DC4H8O)n


_chemical_formula_weight         520.44


_exptl_crystal_colour            white


_chemical_melting_point          183-185(decomp)




_exptl_crystal_preparation       Acetonitrile/THF

loop_
_cell_length_a
_cell_length_b
_cell_length_c
_cell_angle_alpha
_cell_angle_beta
_cell_angle_gamma
8.8595(6) 12.6901(9) 19.8449(14) 90.00 90.00 90.00


_cell_volume                     2231.1(3)

loop_
_symmetry_space_group_name_H-M
_symmetry_cell_setting
Pna2(1) Orthorhombic


_cell_formula_units_Z            4


_exptl_crystal_density_diffrn    1.549


_diffrn_ambient_temperature      293(2)

loop_
_refine_ls_R_factor_all
_refine_ls_R_factor_gt
_refine_ls_wR_factor_ref
_refine_ls_wR_factor_gt
0.0314 0.0272 0.0743 0.0709

loop_
_atom_site_label
_atom_site_fract_x
_atom_site_fract_y
_atom_site_fract_z
_atom_site_U_iso_or_equiv
Ag 0.73346(3) 0.65557(2) 0.01651(3) 0.05205(10)
S1 0.67255(10) 0.60319(7) -0.10322(5) 0.0447(2)
S2 0.38648(11) 0.42013(7) -0.38036(5) 0.0468(2)
N 1.0735(3) 0.6286(3) 0.02672(18) 0.0516(8)
O1 0.9966(3) 0.6997(3) -0.00038(16) 0.0617(8)
O2 1.2119(3) 0.6430(3) 0.0332(2) 0.0671(11)
O3 1.0116(4) 0.5495(3) 0.0472(3) 0.1077(16)
C1 0.4764(4) 0.5588(3) -0.1027(2) 0.0464(8)
H1A 0.4710 0.4903 -0.1243 0.056
H1B 0.4440 0.5502 -0.0564 0.056
C2 0.3673(5) 0.6334(3) -0.1382(2) 0.0524(10)
H2A 0.3577 0.6969 -0.1105 0.063
C3 0.2109(5) 0.5798(4) -0.1414(3) 0.0627(12)
H3A 0.1352 0.6321 -0.1528 0.075
H3B 0.1861 0.5514 -0.0974 0.075
C4 0.2070(4) 0.4913(4) -0.1935(2) 0.0530(10)
H4A 0.2697 0.4337 -0.1776 0.064
H4B 0.1044 0.4651 -0.1970 0.064
C5 0.2612(4) 0.5243(4) -0.2640(3) 0.0476(9)
H5A 0.1893 0.5758 -0.2820 0.057
C6 0.4131(4) 0.5773(3) -0.2586(2) 0.0510(9)
H6A 0.4878 0.5255 -0.2450 0.061
H6B 0.4419 0.6040 -0.3025 0.061
C7 0.4137(6) 0.6671(3) -0.2085(3) 0.0553(11)
H7A 0.5142 0.6973 -0.2066 0.066
H7B 0.3452 0.7216 -0.2241 0.066
C8 0.2553(4) 0.4257(4) -0.3088(2) 0.0487(9)
H8A 0.1535 0.4191 -0.3263 0.058
H8B 0.2740 0.3647 -0.2806 0.058
C9 0.5157(4) 0.3147(3) -0.3553(2) 0.0537(9)
H9A 0.4584 0.2510 -0.3468 0.064
H9B 0.5852 0.3005 -0.3920 0.064
C10 0.6036(5) 0.3431(3) -0.2934(2) 0.0467(9)
C11 0.5656(5) 0.3015(3) -0.2314(2) 0.0511(9)
H11A 0.4954 0.2471 -0.2289 0.061
C12 0.6312(5) 0.3400(3) -0.1725(2) 0.0561(10)
H12A 0.6060 0.3106 -0.1311 0.067
C13 0.7342(4) 0.4220(4) -0.1758(3) 0.0504(10)
C14 0.7798(4) 0.4581(4) -0.2379(3) 0.0530(10)
H14A 0.8534 0.5101 -0.2407 0.064
C15 0.7167(4) 0.4175(4) -0.2969(2) 0.0543(11)
H15A 0.7510 0.4406 -0.3386 0.065
C16 0.7773(5) 0.4786(4) -0.1118(2) 0.0582(11)
H16A 0.8848 0.4932 -0.1122 0.070
H16B 0.7559 0.4338 -0.0734 0.070
O4 0.770(3) 0.1846(14) -0.0123(9) 0.47(2)
C17 0.7193(14) 0.2815(9) 0.0005(7) 0.151(4)
H17A 0.7553 0.3312 -0.0330 0.182
H17B 0.6099 0.2831 0.0013 0.182
C18 0.777(3) 0.3031(12) 0.0616(13) 0.322(15)
H18A 0.7055 0.3479 0.0850 0.386
H18B 0.8681 0.3442 0.0550 0.386
C19 0.811(3) 0.2239(15) 0.1022(11) 0.279(11)
H19A 0.7342 0.2132 0.1363 0.335
H19B 0.9084 0.2337 0.1236 0.335
C20 0.814(3) 0.1390(9) 0.0539(13) 0.263(12)
H20A 0.9140 0.1085 0.0514 0.315
H20B 0.7432 0.0842 0.0670 0.315

loop_
_atom_site_aniso_label
_atom_site_aniso_U_11
_atom_site_aniso_U_22
_atom_site_aniso_U_33
_atom_site_aniso_U_23
_atom_site_aniso_U_13
_atom_site_aniso_U_12
Ag 0.05191(16) 0.06766(18) 0.03659(16) -0.00578(17) 0.0013(2) -0.00692(11)
S1 0.0434(4) 0.0558(5) 0.0349(5) -0.0044(4) -0.0030(4) -0.0057(4)
S2 0.0483(5) 0.0560(5) 0.0359(5) -0.0059(4) -0.0016(4) -0.0027(4)
N 0.0492(16) 0.0623(18) 0.043(2) -0.0077(16) 0.0036(16) -0.0059(14)
O1 0.0499(14) 0.0745(18) 0.061(2) 0.0052(15) -0.0023(13) 0.0048(13)
O2 0.0440(14) 0.089(2) 0.068(3) 0.0009(16) -0.0057(14) -0.0033(13)
O3 0.077(2) 0.078(2) 0.169(5) 0.039(3) 0.007(2) -0.0177(19)
C1 0.0406(17) 0.055(2) 0.044(2) -0.0039(17) -0.0022(16) -0.0019(14)
C2 0.049(2) 0.050(2) 0.057(3) -0.0171(18) -0.012(2) 0.0150(17)
C3 0.046(2) 0.082(3) 0.060(3) -0.024(2) -0.001(2) 0.015(2)
C4 0.0333(18) 0.072(3) 0.054(3) -0.016(2) 0.0017(17) -0.0041(16)
C5 0.045(2) 0.048(2) 0.050(3) -0.0110(19) -0.0063(17) 0.0023(15)
C6 0.055(2) 0.049(2) 0.048(2) -0.0006(17) -0.0013(18) -0.0051(17)
C7 0.066(3) 0.0376(19) 0.062(3) -0.0036(17) -0.019(2) 0.0022(17)
C8 0.0422(18) 0.057(2) 0.047(2) -0.0147(19) 0.0047(15) -0.0057(16)
C9 0.052(2) 0.062(2) 0.047(2) -0.0186(19) 0.0014(18) 0.0097(18)
C10 0.045(2) 0.051(2) 0.044(2) -0.0117(16) 0.0004(19) 0.0157(17)
C11 0.061(2) 0.0399(19) 0.052(2) -0.0059(18) -0.001(2) 0.0080(18)
C12 0.071(3) 0.053(2) 0.045(2) 0.0003(17) -0.007(2) 0.0197(19)
C13 0.0409(19) 0.063(3) 0.047(3) -0.011(2) -0.0073(16) 0.0179(17)
C14 0.0317(17) 0.075(3) 0.052(3) -0.013(2) -0.0003(17) 0.0025(16)
C15 0.0367(18) 0.088(3) 0.039(2) -0.011(2) 0.0042(16) 0.013(2)
C16 0.049(2) 0.078(3) 0.047(3) -0.013(2) -0.0118(18) 0.0143(19)
O4 0.99(6) 0.282(17) 0.142(14) -0.012(11) -0.018(14) 0.26(2)
C17 0.220(10) 0.109(7) 0.125(11) 0.008(6) -0.047(8) 0.044(7)
C18 0.55(4) 0.109(8) 0.30(3) -0.007(13) -0.21(2) 0.079(14)
C19 0.48(3) 0.200(15) 0.160(16) 0.018(14) -0.02(2) 0.13(2)
C20 0.35(2) 0.104(8) 0.34(3) 0.049(12) -0.17(2) 0.009(11)

loop_
_geom_bond_atom_site_label_1
_geom_bond_atom_site_label_2
_geom_bond_distance
Ag O1 2.421(3)
Ag S2 2.4981(11)
Ag S1 2.5256(11)
Ag O2 2.585(3)
S1 C1 1.827(4)
S1 C16 1.841(5)
S2 C9 1.829(4)
S2 C8 1.836(4)
S2 Ag 2.4981(11)
N O3 1.214(5)
N O2 1.246(4)
N O1 1.252(4)
O2 Ag 2.585(3)
C1 C2 1.525(5)
C2 C7 1.516(7)
C2 C3 1.544(7)
C3 C4 1.527(6)
C4 C5 1.537(7)
C5 C6 1.508(5)
C5 C8 1.537(6)
C6 C7 1.512(6)
C9 C10 1.500(6)
C10 C11 1.381(6)
C10 C15 1.378(6)
C11 C12 1.393(6)
C12 C13 1.386(7)
C13 C14 1.376(7)
C13 C16 1.508(6)
C14 C15 1.395(6)
O4 C17 1.334(16)
O4 C20 1.49(2)
C17 C18 1.35(2)
C18 C19 1.32(2)
C19 C20 1.44(3)

loop_
_geom_angle_atom_site_label_1
_geom_angle_atom_site_label_2
_geom_angle_atom_site_label_3
_geom_angle
O1 Ag S2 127.73(8)
O1 Ag S1 97.84(8)
S2 Ag S1 125.36(4)
O1 Ag O2 81.96(10)
S2 Ag O2 104.11(9)
S1 Ag O2 111.41(9)
C1 S1 C16 102.46(19)
C1 S1 Ag 106.22(13)
C16 S1 Ag 101.85(15)
C9 S2 C8 102.4(2)
C9 S2 Ag 101.97(13)
C8 S2 Ag 112.28(13)
O3 N O2 122.1(4)
O3 N O1 119.6(3)
O2 N O1 118.3(3)
N O1 Ag 107.3(2)
N O2 Ag 101.8(2)
C2 C1 S1 114.2(3)
C7 C2 C3 109.3(4)
C7 C2 C1 115.4(4)
C3 C2 C1 108.4(4)
C2 C3 C4 111.8(3)
C5 C4 C3 114.1(4)
C6 C5 C4 109.6(4)
C6 C5 C8 115.8(3)
C4 C5 C8 107.1(4)
C7 C6 C5 112.7(4)
C2 C7 C6 113.0(3)
C5 C8 S2 117.2(3)
C10 C9 S2 111.8(3)
C11 C10 C15 119.0(4)
C11 C10 C9 120.8(4)
C15 C10 C9 120.1(4)
C10 C11 C12 120.7(4)
C13 C12 C11 119.9(5)
C12 C13 C14 119.0(4)
C12 C13 C16 119.0(5)
C14 C13 C16 121.5(5)
C15 C14 C13 120.7(4)
C14 C15 C10 120.1(4)
C13 C16 S1 111.1(3)
C17 O4 C20 106.2(14)
C18 C17 O4 103.3(13)
C17 C18 C19 118.7(16)
C18 C19 C20 99.7(18)
O4 C20 C19 107.0(11)
