####################################################################### 
# 
# This file contains crystal structure data downloaded from the 
# Cambridge Structural Database (CSD) hosted by the Cambridge 
# Crystallographic Data Centre (CCDC).
# 
# Full information about CCDC data access policies and citation 
# guidelines are available at http://www.ccdc.cam.ac.uk/access/V1 
# 
# Audit and citation data items may have been added by the CCDC. 
# Please retain this information to preserve the provenance of 
# this file and to allow appropriate attribution of the data. 
# 
#######################################################################

data_IRMOF-23terp
_audit_block_doi                 10.5517/cc12803g
_database_code_depnum_ccdc_archive 'CCDC 990794'
loop_
_citation_id
_citation_doi
_citation_year
1 10.1021/ic500951b 2014
_audit_update_record             
;
2014-03-09 deposited with the CCDC.	2024-07-11 downloaded from the CCDC.
;

_audit_creation_method           SHELXL-97
_chemical_name_systematic        
; 
 ? 
;
_chemical_name_common            IRMOF-23terp
_chemical_melting_point          ?
_chemical_formula_moiety         'C24 O13 Zn4'
_chemical_formula_sum            'C24 O13 Zn4'
_chemical_formula_weight         757.72

loop_
_atom_type_symbol
_atom_type_description
_atom_type_scat_dispersion_real
_atom_type_scat_dispersion_imag
_atom_type_scat_source
C C 0.0033 0.0016 'International Tables Vol C Tables 4.2.6.8 and 6.1.1.4'
H H 0.0000 0.0000 'International Tables Vol C Tables 4.2.6.8 and 6.1.1.4'
N N 0.0061 0.0033 'International Tables Vol C Tables 4.2.6.8 and 6.1.1.4'
O O 0.0106 0.0060 'International Tables Vol C Tables 4.2.6.8 and 6.1.1.4'
Zn Zn 0.2839 1.4301 'International Tables Vol C Tables 4.2.6.8 and 6.1.1.4'

_symmetry_cell_setting           Cubic
_symmetry_space_group_name_H-M   Fm-3m

loop_
_symmetry_equiv_pos_as_xyz
'x, y, z'
'-x, -y, z'
'-x, y, -z'
'x, -y, -z'
'z, x, y'
'z, -x, -y'
'-z, -x, y'
'-z, x, -y'
'y, z, x'
'-y, z, -x'
'y, -z, -x'
'-y, -z, x'
'y, x, -z'
'-y, -x, -z'
'y, -x, z'
'-y, x, z'
'x, z, -y'
'-x, z, y'
'-x, -z, -y'
'x, -z, y'
'z, y, -x'
'z, -y, x'
'-z, y, x'
'-z, -y, -x'
'x, y+1/2, z+1/2'
'-x, -y+1/2, z+1/2'
'-x, y+1/2, -z+1/2'
'x, -y+1/2, -z+1/2'
'z, x+1/2, y+1/2'
'z, -x+1/2, -y+1/2'
'-z, -x+1/2, y+1/2'
'-z, x+1/2, -y+1/2'
'y, z+1/2, x+1/2'
'-y, z+1/2, -x+1/2'
'y, -z+1/2, -x+1/2'
'-y, -z+1/2, x+1/2'
'y, x+1/2, -z+1/2'
'-y, -x+1/2, -z+1/2'
'y, -x+1/2, z+1/2'
'-y, x+1/2, z+1/2'
'x, z+1/2, -y+1/2'
'-x, z+1/2, y+1/2'
'-x, -z+1/2, -y+1/2'
'x, -z+1/2, y+1/2'
'z, y+1/2, -x+1/2'
'z, -y+1/2, x+1/2'
'-z, y+1/2, x+1/2'
'-z, -y+1/2, -x+1/2'
'x+1/2, y, z+1/2'
'-x+1/2, -y, z+1/2'
'-x+1/2, y, -z+1/2'
'x+1/2, -y, -z+1/2'
'z+1/2, x, y+1/2'
'z+1/2, -x, -y+1/2'
'-z+1/2, -x, y+1/2'
'-z+1/2, x, -y+1/2'
'y+1/2, z, x+1/2'
'-y+1/2, z, -x+1/2'
'y+1/2, -z, -x+1/2'
'-y+1/2, -z, x+1/2'
'y+1/2, x, -z+1/2'
'-y+1/2, -x, -z+1/2'
'y+1/2, -x, z+1/2'
'-y+1/2, x, z+1/2'
'x+1/2, z, -y+1/2'
'-x+1/2, z, y+1/2'
'-x+1/2, -z, -y+1/2'
'x+1/2, -z, y+1/2'
'z+1/2, y, -x+1/2'
'z+1/2, -y, x+1/2'
'-z+1/2, y, x+1/2'
'-z+1/2, -y, -x+1/2'
'x+1/2, y+1/2, z'
'-x+1/2, -y+1/2, z'
'-x+1/2, y+1/2, -z'
'x+1/2, -y+1/2, -z'
'z+1/2, x+1/2, y'
'z+1/2, -x+1/2, -y'
'-z+1/2, -x+1/2, y'
'-z+1/2, x+1/2, -y'
'y+1/2, z+1/2, x'
'-y+1/2, z+1/2, -x'
'y+1/2, -z+1/2, -x'
'-y+1/2, -z+1/2, x'
'y+1/2, x+1/2, -z'
'-y+1/2, -x+1/2, -z'
'y+1/2, -x+1/2, z'
'-y+1/2, x+1/2, z'
'x+1/2, z+1/2, -y'
'-x+1/2, z+1/2, y'
'-x+1/2, -z+1/2, -y'
'x+1/2, -z+1/2, y'
'z+1/2, y+1/2, -x'
'z+1/2, -y+1/2, x'
'-z+1/2, y+1/2, x'
'-z+1/2, -y+1/2, -x'
'-x, -y, -z'
'x, y, -z'
'x, -y, z'
'-x, y, z'
'-z, -x, -y'
'-z, x, y'
'z, x, -y'
'z, -x, y'
'-y, -z, -x'
'y, -z, x'
'-y, z, x'
'y, z, -x'
'-y, -x, z'
'y, x, z'
'-y, x, -z'
'y, -x, -z'
'-x, -z, y'
'x, -z, -y'
'x, z, y'
'-x, z, -y'
'-z, -y, x'
'-z, y, -x'
'z, -y, -x'
'z, y, x'
'-x, -y+1/2, -z+1/2'
'x, y+1/2, -z+1/2'
'x, -y+1/2, z+1/2'
'-x, y+1/2, z+1/2'
'-z, -x+1/2, -y+1/2'
'-z, x+1/2, y+1/2'
'z, x+1/2, -y+1/2'
'z, -x+1/2, y+1/2'
'-y, -z+1/2, -x+1/2'
'y, -z+1/2, x+1/2'
'-y, z+1/2, x+1/2'
'y, z+1/2, -x+1/2'
'-y, -x+1/2, z+1/2'
'y, x+1/2, z+1/2'
'-y, x+1/2, -z+1/2'
'y, -x+1/2, -z+1/2'
'-x, -z+1/2, y+1/2'
'x, -z+1/2, -y+1/2'
'x, z+1/2, y+1/2'
'-x, z+1/2, -y+1/2'
'-z, -y+1/2, x+1/2'
'-z, y+1/2, -x+1/2'
'z, -y+1/2, -x+1/2'
'z, y+1/2, x+1/2'
'-x+1/2, -y, -z+1/2'
'x+1/2, y, -z+1/2'
'x+1/2, -y, z+1/2'
'-x+1/2, y, z+1/2'
'-z+1/2, -x, -y+1/2'
'-z+1/2, x, y+1/2'
'z+1/2, x, -y+1/2'
'z+1/2, -x, y+1/2'
'-y+1/2, -z, -x+1/2'
'y+1/2, -z, x+1/2'
'-y+1/2, z, x+1/2'
'y+1/2, z, -x+1/2'
'-y+1/2, -x, z+1/2'
'y+1/2, x, z+1/2'
'-y+1/2, x, -z+1/2'
'y+1/2, -x, -z+1/2'
'-x+1/2, -z, y+1/2'
'x+1/2, -z, -y+1/2'
'x+1/2, z, y+1/2'
'-x+1/2, z, -y+1/2'
'-z+1/2, -y, x+1/2'
'-z+1/2, y, -x+1/2'
'z+1/2, -y, -x+1/2'
'z+1/2, y, x+1/2'
'-x+1/2, -y+1/2, -z'
'x+1/2, y+1/2, -z'
'x+1/2, -y+1/2, z'
'-x+1/2, y+1/2, z'
'-z+1/2, -x+1/2, -y'
'-z+1/2, x+1/2, y'
'z+1/2, x+1/2, -y'
'z+1/2, -x+1/2, y'
'-y+1/2, -z+1/2, -x'
'y+1/2, -z+1/2, x'
'-y+1/2, z+1/2, x'
'y+1/2, z+1/2, -x'
'-y+1/2, -x+1/2, z'
'y+1/2, x+1/2, z'
'-y+1/2, x+1/2, -z'
'y+1/2, -x+1/2, -z'
'-x+1/2, -z+1/2, y'
'x+1/2, -z+1/2, -y'
'x+1/2, z+1/2, y'
'-x+1/2, z+1/2, -y'
'-z+1/2, -y+1/2, x'
'-z+1/2, y+1/2, -x'
'z+1/2, -y+1/2, -x'
'z+1/2, y+1/2, x'

_cell_length_a                   25.5553(18)
_cell_length_b                   25.5553(18)
_cell_length_c                   25.5553(18)
_cell_angle_alpha                90.00
_cell_angle_beta                 90.00
_cell_angle_gamma                90.00
_cell_volume                     16689(2)
_cell_formula_units_Z            8
_cell_measurement_temperature    100(2)
_cell_measurement_reflns_used    1047
_cell_measurement_theta_min      2.25
_cell_measurement_theta_max      19.50

_exptl_crystal_description       block
_exptl_crystal_colour            colourless
_exptl_crystal_size_min          0.10
_exptl_crystal_size_mid          0.10
_exptl_crystal_size_max          0.30
_exptl_crystal_density_meas      'not measured'
_exptl_crystal_density_diffrn    0.603
_exptl_crystal_density_method    'not measured'
_exptl_crystal_F_000             2944
_exptl_absorpt_coefficient_mu    1.157
_exptl_absorpt_correction_type   multi-scan
_exptl_absorpt_correction_T_min  0.9315
_exptl_absorpt_correction_T_max  0.9474
_exptl_absorpt_process_details   SADABS

_exptl_special_details           
; 
 ? 
;

_diffrn_ambient_temperature      100(2)
_diffrn_radiation_wavelength     0.71073
_diffrn_radiation_type           MoK\a
_diffrn_radiation_source         'fine-focus sealed tube'
_diffrn_radiation_monochromator  graphite
_diffrn_measurement_device_type  'Bruker APEX-II CCD'
_diffrn_measurement_method       '\f and \w scans'
_diffrn_detector_area_resol_mean ?
_diffrn_standards_number         ?
_diffrn_standards_interval_count ?
_diffrn_standards_interval_time  ?
_diffrn_standards_decay_%        ?
_diffrn_reflns_number            830
_diffrn_reflns_av_R_equivalents  0.0000
_diffrn_reflns_av_sigmaI/netI    0.0288
_diffrn_reflns_limit_h_min       0
_diffrn_reflns_limit_h_max       17
_diffrn_reflns_limit_k_min       0
_diffrn_reflns_limit_k_max       21
_diffrn_reflns_limit_l_min       1
_diffrn_reflns_limit_l_max       30
_diffrn_reflns_theta_min         1.38
_diffrn_reflns_theta_max         25.35
_reflns_number_total             830
_reflns_number_gt                474
_reflns_threshold_expression     >2sigma(I)

_computing_data_collection       'Bruker APEX2'
_computing_cell_refinement       'Bruker SAINT'
_computing_data_reduction        'Bruker SAINT'
_computing_structure_solution    'SHELXS-97 (Sheldrick, 2008)'
_computing_structure_refinement  'SHELXL-97 (Sheldrick, 2008)'
_computing_molecular_graphics    'Bruker SHELXTL'
_computing_publication_material  'Bruker SHELXTL'

_refine_special_details          
; 
 Refinement of F^2^ against ALL reflections.  The weighted R-factor wR and 
 goodness of fit S are based on F^2^, conventional R-factors R are based 
 on F, with F set to zero for negative F^2^. The threshold expression of 
 F^2^ > 2sigma(F^2^) is used only for calculating R-factors(gt) etc. and is 
 not relevant to the choice of reflections for refinement.  R-factors based 
 on F^2^ are statistically about twice as large as those based on F, and R- 
 factors based on ALL data will be even larger. 
;

_refine_ls_structure_factor_coef Fsqd
_refine_ls_matrix_type           full
_refine_ls_weighting_scheme      calc
_refine_ls_weighting_details     
'calc w=1/[\s^2^(Fo^2^)+(0.1294P)^2^+0.0000P] where P=(Fo^2^+2Fc^2^)/3'
_atom_sites_solution_primary     direct
_atom_sites_solution_secondary   difmap
_atom_sites_solution_hydrogens   constr
_refine_ls_hydrogen_treatment    constr
_refine_ls_extinction_method     none
_refine_ls_extinction_coef       ?
_refine_ls_number_reflns         830
_refine_ls_number_parameters     25
_refine_ls_number_restraints     0
_refine_ls_R_factor_all          0.0847
_refine_ls_R_factor_gt           0.0615
_refine_ls_wR_factor_ref         0.2001
_refine_ls_wR_factor_gt          0.1896
_refine_ls_goodness_of_fit_ref   1.015
_refine_ls_restrained_S_all      1.015
_refine_ls_shift/su_max          0.000
_refine_ls_shift/su_mean         0.000

loop_
_atom_site_label
_atom_site_type_symbol
_atom_site_fract_x
_atom_site_fract_y
_atom_site_fract_z
_atom_site_U_iso_or_equiv
_atom_site_adp_type
_atom_site_occupancy
_atom_site_symmetry_multiplicity
_atom_site_calc_flag
_atom_site_refinement_flags
_atom_site_disorder_assembly
_atom_site_disorder_group
O1 O 0.2500 0.2500 0.2500 0.060(2) Uani 1 24 d S . .
O2 O 0.28179(15) 0.21821(15) 0.13431(19) 0.1333(19) Uani 1 2 d S . .
C1 C 0.2500 0.2500 0.1118(4) 0.117(3) Uani 1 4 d S . .
C2 C 0.2500 0.2500 0.0541(3) 0.118(3) Uani 1 4 d S . .
C3 C 0.2171(3) 0.2829(3) 0.0266(3) 0.184(5) Uani 1 2 d S . .
Zn1 Zn 0.29350(2) 0.20650(2) 0.20650(2) 0.0788(6) Uani 1 6 d S . .

loop_
_platon_squeeze_void_nr
_platon_squeeze_void_average_x
_platon_squeeze_void_average_y
_platon_squeeze_void_average_z
_platon_squeeze_void_volume
_platon_squeeze_void_count_electrons
_platon_squeeze_void_content
1 -0.019 -0.008 -0.007 12825 2187 ' '
_platon_squeeze_details          ?

_vrf_                            
;
SQUEEZE protocol found 1683 electron per unitcell that can be accounted
for DMF or CHCl3 solvent molecules. The cross-linked pentane cannot
be located and refined within the structure.
Due to the severely disordered structure, no hydrogen atom was added
;

loop_
_atom_site_aniso_label
_atom_site_aniso_U_11
_atom_site_aniso_U_22
_atom_site_aniso_U_33
_atom_site_aniso_U_23
_atom_site_aniso_U_13
_atom_site_aniso_U_12
O1 0.060(2) 0.060(2) 0.060(2) 0.000 0.000 0.000
O2 0.158(3) 0.158(3) 0.085(3) 0.005(2) -0.005(2) 0.018(3)
C1 0.136(5) 0.136(5) 0.080(6) 0.000 0.000 0.011(7)
C2 0.149(6) 0.149(6) 0.057(5) 0.000 0.000 0.013(7)
C3 0.248(8) 0.248(8) 0.057(4) 0.016(3) -0.016(3) 0.073(9)
Zn1 0.0788(6) 0.0788(6) 0.0788(6) -0.0062(3) 0.0062(3) 0.0062(3)

_geom_special_details            
; 
 All esds (except the esd in the dihedral angle between two l.s. planes) 
 are estimated using the full covariance matrix.  The cell esds are taken 
 into account individually in the estimation of esds in distances, angles 
 and torsion angles; correlations between esds in cell parameters are only 
 used when they are defined by crystal symmetry.  An approximate (isotropic) 
 treatment of cell esds is used for estimating esds involving l.s. planes. 
;

loop_
_geom_bond_atom_site_label_1
_geom_bond_atom_site_label_2
_geom_bond_distance
_geom_bond_site_symmetry_2
_geom_bond_publ_flag
O1 Zn1 1.9254(11) 28 ?
O1 Zn1 1.9254(11) . ?
O1 Zn1 1.9254(11) 74 ?
O1 Zn1 1.9255(11) 51 ?
O2 C1 1.285(6) . ?
O2 Zn1 1.893(5) . ?
C1 O2 1.285(6) 74 ?
C1 C2 1.475(11) . ?
C2 C3 1.381(9) 74 ?
C2 C3 1.381(9) . ?
C3 C3 1.360(15) 98 ?
Zn1 O2 1.893(5) 79 ?
Zn1 O2 1.893(5) 58 ?
Zn1 Zn1 3.1442(17) 28 ?
Zn1 Zn1 3.1442(17) 74 ?
Zn1 Zn1 3.1443(17) 51 ?

loop_
_geom_angle_atom_site_label_1
_geom_angle_atom_site_label_2
_geom_angle_atom_site_label_3
_geom_angle
_geom_angle_site_symmetry_1
_geom_angle_site_symmetry_3
_geom_angle_publ_flag
Zn1 O1 Zn1 109.469(1) 28 . ?
Zn1 O1 Zn1 109.5 28 74 ?
Zn1 O1 Zn1 109.5 . 74 ?
Zn1 O1 Zn1 109.5 28 51 ?
Zn1 O1 Zn1 109.5 . 51 ?
Zn1 O1 Zn1 109.5 74 51 ?
C1 O2 Zn1 129.5(6) . . ?
O2 C1 O2 126.8(9) 74 . ?
O2 C1 C2 116.6(5) 74 . ?
O2 C1 C2 116.6(5) . . ?
C3 C2 C3 118.9(10) 74 . ?
C3 C2 C1 120.6(5) 74 . ?
C3 C2 C1 120.6(5) . . ?
C3 C3 C2 120.6(5) 98 . ?
O2 Zn1 O2 106.45(19) 79 . ?
O2 Zn1 O2 106.45(19) 79 58 ?
O2 Zn1 O2 106.44(19) . 58 ?
O2 Zn1 O1 112.35(18) 79 . ?
O2 Zn1 O1 112.35(18) . . ?
O2 Zn1 O1 112.35(18) 58 . ?
O2 Zn1 Zn1 77.09(18) 79 28 ?
O2 Zn1 Zn1 125.27(14) . 28 ?
O2 Zn1 Zn1 125.27(14) 58 28 ?
O1 Zn1 Zn1 35.3 . 28 ?
O2 Zn1 Zn1 125.28(14) 79 74 ?
O2 Zn1 Zn1 77.08(18) . 74 ?
O2 Zn1 Zn1 125.27(14) 58 74 ?
O1 Zn1 Zn1 35.3 . 74 ?
Zn1 Zn1 Zn1 60.0 28 74 ?
O2 Zn1 Zn1 125.27(14) 79 51 ?
O2 Zn1 Zn1 125.27(14) . 51 ?
O2 Zn1 Zn1 77.09(18) 58 51 ?
O1 Zn1 Zn1 35.3 . 51 ?
Zn1 Zn1 Zn1 60.0 28 51 ?
Zn1 Zn1 Zn1 60.0 74 51 ?

_diffrn_measured_fraction_theta_max 0.998
_diffrn_reflns_theta_full        25.35
_diffrn_measured_fraction_theta_full 0.998
_refine_diff_density_max         0.467
_refine_diff_density_min         -0.421
_refine_diff_density_rms         0.059
