####################################################################### 
# 
# This file contains crystal structure data downloaded from the 
# Cambridge Structural Database (CSD) hosted by the Cambridge 
# Crystallographic Data Centre (CCDC).
# 
# Full information about CCDC data access policies and citation 
# guidelines are available at http://www.ccdc.cam.ac.uk/access/V1 
# 
# Audit and citation data items may have been added by the CCDC. 
# Please retain this information to preserve the provenance of 
# this file and to allow appropriate attribution of the data. 
# 
#######################################################################

data_compound_water-soaked_FMOF-1
_audit_block_doi                 10.5517/ccy24lq
_database_code_depnum_ccdc_archive 'CCDC 866003'
loop_
_citation_id
_citation_doi
_citation_year
1 10.1021/ja208408n 2011
_audit_update_record             
;
2012-02-07 deposited with the CCDC.	2024-07-12 downloaded from the CCDC.
;


_audit_creation_method           'manually at CCDC'


_chemical_name_systematic        
;

;
_chemical_formula_moiety         'C48 Ag12 F72 N36'
_chemical_formula_weight         3743.28
_chemical_melting_point          ?

_symmetry_cell_setting           Tetragonal
_symmetry_space_group_name_H-M   I-42d
_symmetry_Int_Tables_number      ?

_cell_length_a                   13.300(2)
_cell_length_b                   13.300(2)
_cell_length_c                   39.569(7)
_cell_angle_alpha                90
_cell_angle_beta                 90
_cell_angle_gamma                90
_cell_volume                     6999(2)
_cell_formula_units_Z            2

_exptl_crystal_density_diffrn    1.776
_exptl_crystal_description       ?
_exptl_special_details           
;

;

_diffrn_ambient_temperature      100(2)
_diffrn_radiation_probe          x-ray

_refine_ls_R_factor_gt           0.0324
_refine_special_details          
;

;

loop_
_atom_site_label
_atom_site_fract_x
_atom_site_fract_y
_atom_site_fract_z
_atom_site_U_iso_or_equiv

Ag(1) 0.5000 1.0000 0.9014(1) 0.048(1)
Ag(2) 0.1180(1) 0.8596(1) 0.9948(1) 0.059(1)
F(1) 0.5181(4) 0.7875(3) 0.8593(1) 0.090(1)
F(2) 0.6644(4) 0.8424(4) 0.8480(1) 0.105(2)
F(3) 0.5842(4) 0.7671(3) 0.8102(1) 0.100(2)
F(4) 0.3759(3) 0.8030(3) 0.9086(1) 0.086(1)
F(5) 0.2193(3) 0.7859(4) 0.9193(2) 0.114(2)
F(6) 0.3270(5) 0.7439(3) 0.9541(1) 0.120(2)
F(7) 0.3913(5) 1.2048(3) 0.9291(1) 0.119(2)
F(8) 0.3259(3) 1.2308(3) 0.9775(1) 0.098(2)
F(9) 0.4703(3) 1.1656(4) 0.9723(2) 0.127(2)
N(1) 0.5000 1.0000 0.8452(2) 0.051(1)
N(2) 0.3671(3) 0.9938(4) 0.9377(1) 0.054(1)
N(3) 0.2385(3) 0.9398(3) 0.9687(1) 0.053(1)
N(4) 0.2566(4) 1.0374(3) 0.9773(1) 0.058(1)
N(5) 0.5178(3) 0.9508(3) 0.7919(1) 0.053(1)
C(1) 0.5289(4) 0.9278(4) 0.8242(1) 0.058(1)
C(2) 0.5730(5) 0.8301(5) 0.8351(2) 0.066(2)
C(3) 0.3057(4) 0.9172(5) 0.9456(2) 0.058(1)
C(4) 0.3074(5) 0.8140(5) 0.9303(2) 0.079(2)
C(5) 0.3324(4) 1.0662(4) 0.9582(1) 0.055(1)
C(6) 0.3774(5) 1.1673(5) 0.9593(2) 0.079(2)



loop_
_geom_bond_atom_site_label_1
_geom_bond_atom_site_label_2
_geom_bond_distance

Ag(1) N(1) 2.224(6)
Ag(1) N(2) 2.279(4)
Ag(2) N(4) 2.181(5)
Ag(2) N(3) 2.184(4)
Ag(2) N(5) 2.616(4)
F(1) C(2) 1.329(8)
F(2) C(2) 1.328(8)
F(3) C(2) 1.303(7)
F(4) C(4) 1.259(8)
F(5) C(4) 1.305(8)
F(6) C(4) 1.352(10)
F(7) C(6) 1.307(9)
F(8) C(6) 1.306(7)
F(9) C(6) 1.340(9)
N(1) C(1) 1.328(7)
N(1) C(1) 1.328(7)
N(2) C(5) 1.342(7)
N(2) C(3) 1.342(7)
N(3) C(3) 1.315(7)
N(3) N(4) 1.363(6)
N(4) C(5) 1.316(7)
N(5) C(1) 1.321(7)
N(5) N(5) 1.392(9)
C(1) C(2) 1.490(8)
C(3) C(4) 1.499(9)
C(5) C(6) 1.473(8)

loop_
_geom_angle_atom_site_label_1
_geom_angle_atom_site_label_2
_geom_angle_atom_site_label_3
_geom_angle
N(1) Ag(1) N(2) 129.06(10)
N(1) Ag(1) N(2)#1 129.06(10)
N(2) Ag(1) N(2)#1 101.9(2)
N(4)#2 Ag(2) N(3) 160.99(16)
N(4)#2 Ag(2) N(5)#3 105.69(16)
N(3) Ag(2) N(5)#3 91.08(15)
C(1) N(1) C(1)#1 102.4(6)
C(1) N(1) Ag(1) 128.8(3)
C(1)#1 N(1) Ag(1) 128.8(3)
C(5) N(2) C(3) 101.2(4)
C(5) N(2) Ag(1) 128.5(4)
C(3) N(2) Ag(1) 130.2(4)
C(3) N(3) N(4) 105.7(4)
C(3) N(3) Ag(2) 135.8(4)
N(4) N(3) Ag(2) 118.5(3)
C(5) N(4) N(3) 105.6(4)
C(5) N(4) Ag(2)#4 133.6(4)
N(3) N(4) Ag(2)#4 118.0(3)
C(1) N(5) N(5)#1 104.8(3)
C(1) N(5) Ag(2)#3 120.4(4)
N(5)#1 N(5) Ag(2)#3 101.6(3)
N(5) C(1) N(1) 113.9(5)
N(5) C(1) C(2) 121.8(5)
N(1) C(1) C(2) 124.2(5)
F(3) C(2) F(2) 105.3(6)
F(3) C(2) F(1) 109.5(6)
F(2) C(2) F(1) 106.3(6)
F(3) C(2) C(1) 112.7(5)
F(2) C(2) C(1) 111.4(6)
F(1) C(2) C(1) 111.4(5)
N(3) C(3) N(2) 113.7(5)
N(3) C(3) C(4) 120.1(5)
N(2) C(3) C(4) 126.3(5)
F(4) C(4) F(5) 113.0(7)
F(4) C(4) F(6) 104.8(6)
F(5) C(4) F(6) 102.0(6)
F(4) C(4) C(3) 113.1(5)
F(5) C(4) C(3) 112.5(6)
F(6) C(4) C(3) 110.7(6)
N(4) C(5) N(2) 113.7(5)
N(4) C(5) C(6) 124.2(5)
N(2) C(5) C(6) 122.1(5)
F(8) C(6) F(7) 109.4(7)
F(8) C(6) F(9) 106.3(6)
F(7) C(6) F(9) 103.2(6)
F(8) C(6) C(5) 113.1(5)
F(7) C(6) C(5) 112.4(6)
F(9) C(6) C(5) 111.8(6)

#END

