####################################################################### 
# 
# This file contains crystal structure data downloaded from the 
# Cambridge Structural Database (CSD) hosted by the Cambridge 
# Crystallographic Data Centre (CCDC).
# 
# Full information about CCDC data access policies and citation 
# guidelines are available at http://www.ccdc.cam.ac.uk/access/V1 
# 
# Audit and citation data items may have been added by the CCDC. 
# Please retain this information to preserve the provenance of 
# this file and to allow appropriate attribution of the data. 
# 
#######################################################################

data_STA12-AS-PREPARED_publ
_audit_block_doi                 10.5517/ccs3jx9
_database_code_depnum_ccdc_archive 'CCDC 718391'
loop_
_citation_id
_citation_doi
_citation_year
1 10.1021/ja804936z 2008
_audit_update_record             
;
2009-01-29 deposited with the CCDC.	2024-07-12 downloaded from the CCDC.
;

_pd_block_id                     
2008-04-23T12:58|STA12-AS-PREPARED|stuart|id31

_audit_creation_method           'from EXP file using GSAS2CIF'
_audit_creation_date             2008-04-23T12:58


_pd_char_colour                  green # use ICDD colour descriptions
_refine_ls_shift/su_max          0.04
_refine_ls_shift/su_mean         0.00
_computing_structure_refinement  GSAS
_refine_ls_number_parameters     83
_refine_ls_goodness_of_fit_all   2.45
_refine_ls_number_restraints     0
_refine_ls_matrix_type           full
#==============================================================================
# 7. CHEMICAL, STRUCTURAL AND CRYSTAL DATA

_pd_char_particle_morphology     ?

_chemical_name_systematic        
; ?
;
_chemical_name_common            ' '
_chemical_formula_moiety         ?
_chemical_formula_structural     ?
_chemical_formula_analytical     ?
_chemical_melting_point          ?
_chemical_compound_source        ? # for minerals and
# natural products
_symmetry_space_group_name_Hall  ?

_exptl_crystal_F_000             ?
_exptl_crystal_density_diffrn    ?
_exptl_crystal_density_meas      ?
_exptl_crystal_density_method    ?

_cell_measurement_temperature    ?

_cell_special_details            
; ?
;

_geom_special_details            ?

# The following item identifies the program(s) used (if appropriate).
_computing_structure_solution    ?

#==============================================================================

# 8. Phase information from GSAS

_pd_phase_name                   
'from F:/University/GSAS WORK/sta12as/sta12as.CIF'
_cell_length_a                   27.83424(11)
_cell_length_b                   27.83424
_cell_length_c                   6.242081(26)
_cell_angle_alpha                90.0
_cell_angle_beta                 90.0
_cell_angle_gamma                120.0
_cell_volume                     4188.116(24)
_symmetry_cell_setting           trigonal
_symmetry_space_group_name_H-M   'R -3'
loop_
_symmetry_equiv_pos_site_id
_symmetry_equiv_pos_as_xyz
1 +x,+y,+z
2 -y,x-y,+z
3 y-x,-x,+z
-1 -x,-y,-z
-2 +y,y-x,-z
-3 x-y,+x,-z
101 +x+1/3,+y+2/3,+z+2/3
102 -y+1/3,x-y+2/3,+z+2/3
103 y-x+1/3,-x+2/3,+z+2/3
-101 -x+2/3,-y+1/3,-z+1/3
-102 +y+2/3,y-x+1/3,-z+1/3
-103 x-y+2/3,+x+1/3,-z+1/3
201 +x+2/3,+y+1/3,+z+1/3
202 -y+2/3,x-y+1/3,+z+1/3
203 y-x+2/3,-x+1/3,+z+1/3
-201 -x+1/3,-y+2/3,-z+2/3
-202 +y+1/3,y-x+2/3,-z+2/3
-203 x-y+1/3,+x+2/3,-z+2/3

# ATOMIC COORDINATES AND DISPLACEMENT PARAMETERS


loop_
_atom_site_type_symbol
_atom_site_label
_atom_site_fract_x
_atom_site_fract_y
_atom_site_fract_z
_atom_site_occupancy
_atom_site_thermal_displace_type
_atom_site_U_iso_or_equiv
_atom_site_symmetry_multiplicity
Ni NI1 0.30346(5) 0.02706(5) -0.28079(22) 1.0 Uiso 0.0033(4) 18
P P1 0.42359(11) 0.03931(12) -0.4292(5) 1.0 Uiso 0.0087(8) 18
O O1 0.47662(21) 0.09266(22) -0.4836(10) 1.0 Uiso 0.0060(10) 18
O O2 0.22306(22) 0.00589(19) -0.2202(10) 1.0 Uiso 0.0060(10) 18
O O3 0.41454(27) -0.13624(26) -0.5565(11) 0.99540 Uiso 0.0849(19) 18
O O7 0.28755(22) -0.05517(23) -0.2838(9) 1.0 Uiso 0.0060(10) 18
N N1 0.45300(28) 0.00842(29) -0.0437(12) 1.0 Uiso 0.0087(8) 18
C C1 0.4917(4) -0.0552(4) 0.0217(14) 1.0 Uiso 0.0087(8) 18
O O6 0.38652(22) 0.05057(22) -0.2688(9) 1.0 Uiso 0.0060(10) 18
O O4 0.36927(30) -0.22480(28) -0.2815(13) 0.96315 Uiso 0.0849(19) 18
C C2 0.44653(34) -0.0441(4) 0.0782(12) 1.0 Uiso 0.0087(8) 18
C C3 0.4369(4) -0.0134(4) -0.2718(13) 1.0 Uiso 0.0087(8) 18
O O5 0.37749(31) -0.21739(27) -0.8657(13) 0.97505 Uiso 0.0849(19) 18

# If you change Z, be sure to change all 3 of the following
_chemical_formula_sum            'C3 N Ni O6.94 P'
_chemical_formula_weight         250.65
_cell_formula_units_Z            18

# MOLECULAR GEOMETRY

loop_
_geom_bond_atom_site_label_1
_geom_bond_atom_site_label_2
_geom_bond_distance
_geom_bond_site_symmetry_1
_geom_bond_site_symmetry_2
_geom_bond_publ_flag
NI1 O2 2.044(5) . 1_555 N
NI1 O7 2.103(5) . 1_555 N
NI1 O7 2.133(6) . 203_555 N
NI1 N1 2.193(7) . 102_544 N
NI1 O6 2.066(5) . 1_555 N
NI1 O6 2.104(6) . 102_544 N
P1 O1 1.519(5) . 1_555 N
P1 O7 1.487(5) . 102_544 N
P1 O6 1.578(5) . 1_555 N
P1 C3 1.948(10) . 1_555 N
O1 P1 1.519(5) . 1_555 N
O2 NI1 2.044(5) . 1_555 N
O7 NI1 2.103(5) . 1_555 N
O7 NI1 2.133(6) . 102_544 N
O7 P1 1.487(5) . 203_555 N
N1 NI1 2.193(7) . 203_555 N
N1 C1 1.442(8) . -1_655 N
N1 C2 1.576(9) . 1_555 N
N1 C3 1.524(8) . 1_555 N
C1 N1 1.442(8) . -1_655 N
C1 C2 1.479(10) . 1_555 N
O6 NI1 2.066(5) . 1_555 N
O6 NI1 2.104(6) . 203_555 N
O6 P1 1.578(5) . 1_555 N
C2 N1 1.576(9) . 1_555 N
C2 C1 1.479(10) . 1_555 N
C3 P1 1.948(10) . 1_555 N
C3 N1 1.524(8) . 1_555 N

loop_
_geom_angle_atom_site_label_1
_geom_angle_atom_site_label_2
_geom_angle_atom_site_label_3
_geom_angle
_geom_angle_site_symmetry_1
_geom_angle_site_symmetry_2
_geom_angle_site_symmetry_3
_geom_angle_publ_flag
O2 NI1 O7 94.79(20) 1_555 . 1_555 N
O2 NI1 O7 90.69(21) 1_555 . 203_555 N
O2 NI1 O6 167.21(25) 1_555 . 1_555 N
O2 NI1 O6 90.00(22) 1_555 . 102_544 N
O7 NI1 O7 99.18(25) 1_555 . 203_555 N
O7 NI1 O6 86.46(17) 1_555 . 1_555 N
O7 NI1 O6 76.40(21) 1_555 . 102_544 N
O7 NI1 O6 76.55(19) 203_555 . 1_555 N
O7 NI1 O6 175.57(23) 203_555 . 102_544 N
O6 NI1 O6 102.65(24) 1_555 . 102_544 N
O1 P1 O7 114.6(4) 1_555 . 102_544 N
O1 P1 O6 111.10(35) 1_555 . 1_555 N
O1 P1 C3 113.0(4) 1_555 . 1_555 N
O7 P1 O6 107.48(32) 102_544 . 1_555 N
O7 P1 C3 107.2(4) 102_544 . 1_555 N
O6 P1 C3 102.6(4) 1_555 . 1_555 N
NI1 O7 NI1 96.48(25) 1_555 . 102_544 N
NI1 O7 P1 127.3(4) 1_555 . 203_555 N
NI1 O7 P1 133.8(4) 102_544 . 203_555 N
C1 N1 C2 111.5(7) -1_655 . 1_555 N
C1 N1 C3 114.7(7) -1_655 . 1_555 N
C2 N1 C3 102.0(6) 1_555 . 1_555 N
N1 C1 C2 115.1(7) -1_655 . 1_555 N
NI1 O6 NI1 98.56(26) 1_555 . 203_555 N
NI1 O6 P1 130.83(32) 1_555 . 1_555 N
NI1 O6 P1 115.07(30) 203_555 . 1_555 N
N1 C2 C1 111.3(7) 1_555 . 1_555 N
P1 C3 N1 107.5(6) 1_555 . 1_555 N

# Powder diffraction data for histogram 1
#==============================================================================
# 9. INSTRUMENT CHARACTERIZATION

_exptl_special_details           
; ?
;

# if regions of the data are excluded, the reason(s) are supplied here:
_pd_proc_info_excluded_regions   
; ?
;

# The following item is used to identify the equipment used to record
# the powder pattern when the diffractogram was measured at a laboratory
# other than the authors' home institution, e.g. when neutron or synchrotron
# radiation is used.

_pd_instr_location               
; ?
;
_pd_calibration_special_details  
# description of the method used
# to calibrate the instrument
; ?
;

_diffrn_ambient_temperature      100
_diffrn_source                   ?
_diffrn_source_target            ?
_diffrn_source_type              ?
_diffrn_measurement_device_type  ?
_diffrn_detector                 ?
_diffrn_detector_type            ? # make or model of detector

_pd_meas_scan_method             ? # options are 'step', 'cont',
# 'tof', 'fixed' or
# 'disp' (= dispersive)
_pd_meas_special_details         
; ?
;

# The following two items identify the program(s) used (if appropriate).
_computing_data_collection       ?
_computing_data_reduction        ?

# Describe any processing performed on the data, prior to refinement.
# For example: a manual Lp correction or a precomputed absorption correction
_pd_proc_info_data_reduction     ?

# The following item is used for angular dispersive measurements only.

_diffrn_radiation_monochromator  ?

# The following items are used to define the size of the instrument.
# Not all distances are appropriate for all instrument types.

_pd_instr_dist_src/mono          ?
_pd_instr_dist_mono/spec         ?
_pd_instr_dist_src/spec          ?
_pd_instr_dist_spec/anal         ?
_pd_instr_dist_anal/detc         ?
_pd_instr_dist_spec/detc         ?


_pd_meas_number_of_points        15993
_pd_proc_number_of_points        15993


_reflns_number_total             521
_reflns_limit_h_min              0
_reflns_limit_h_max              22
_reflns_limit_k_min              -10
_reflns_limit_k_max              11
_reflns_limit_l_min              -5
_reflns_limit_l_max              5
_reflns_d_resolution_high        1.233
_reflns_d_resolution_low         13.917
