####################################################################### 
# 
# This file contains crystal structure data downloaded from the 
# Cambridge Structural Database (CSD) hosted by the Cambridge 
# Crystallographic Data Centre (CCDC).
# 
# Full information about CCDC data access policies and citation 
# guidelines are available at http://www.ccdc.cam.ac.uk/access/V1 
# 
# Audit and citation data items may have been added by the CCDC. 
# Please retain this information to preserve the provenance of 
# this file and to allow appropriate attribution of the data. 
# 
#######################################################################

data_STA12UNDERVACUUM_publ
_audit_block_doi                 10.5517/ccs3jyb
_database_code_depnum_ccdc_archive 'CCDC 718392'
loop_
_citation_id
_citation_doi
_citation_year
1 10.1021/ja804936z 2008
_audit_update_record             
;
2009-01-29 deposited with the CCDC.	2024-07-12 downloaded from the CCDC.
;

_pd_block_id                     2008-04-23T12:52|STA12UNDERVACUUM|stuart|ID31

_audit_creation_method           'from EXP file using GSAS2CIF'
_audit_creation_date             2008-04-23T12:52

_pd_char_colour                  green # use ICDD colour descriptions
_refine_ls_shift/su_max          0.04
_refine_ls_shift/su_mean         0.01
_computing_structure_refinement  GSAS
_refine_ls_number_parameters     71
_refine_ls_goodness_of_fit_all   4.14
_refine_ls_number_restraints     0
_refine_ls_matrix_type           full
#==============================================================================
# 7. CHEMICAL, STRUCTURAL AND CRYSTAL DATA

_pd_char_particle_morphology     ?

_chemical_name_systematic        
; ?
;
_chemical_name_common            ' '
_chemical_formula_moiety         ?
_chemical_formula_structural     ?
_chemical_formula_analytical     ?
_chemical_melting_point          ?
_chemical_compound_source        ? # for minerals and
# natural products
_symmetry_space_group_name_Hall  ?

_exptl_crystal_F_000             ?
_exptl_crystal_density_diffrn    ?
_exptl_crystal_density_meas      ?
_exptl_crystal_density_method    ?

_cell_measurement_temperature    ?

_cell_special_details            
; ?
;

_geom_special_details            ?

# The following item identifies the program(s) used (if appropriate).
_computing_structure_solution    ?

#==============================================================================

# 8. Phase information from GSAS

_pd_phase_name                   
'from E:/University/GSAS WORK/STA12-dehyd-50/STA12-nonMedehyd50.CIF'
_cell_length_a                   27.91436(12)
_cell_length_b                   27.91436
_cell_length_c                   6.165502(21)
_cell_angle_alpha                90.0
_cell_angle_beta                 90.0
_cell_angle_gamma                120.0
_cell_volume                     4160.585(23)
_symmetry_cell_setting           trigonal
_symmetry_space_group_name_H-M   'R -3'
loop_
_symmetry_equiv_pos_site_id
_symmetry_equiv_pos_as_xyz
1 +x,+y,+z
2 -y,x-y,+z
3 y-x,-x,+z
-1 -x,-y,-z
-2 +y,y-x,-z
-3 x-y,+x,-z
101 +x+1/3,+y+2/3,+z+2/3
102 -y+1/3,x-y+2/3,+z+2/3
103 y-x+1/3,-x+2/3,+z+2/3
-101 -x+2/3,-y+1/3,-z+1/3
-102 +y+2/3,y-x+1/3,-z+1/3
-103 x-y+2/3,+x+1/3,-z+1/3
201 +x+2/3,+y+1/3,+z+1/3
202 -y+2/3,x-y+1/3,+z+1/3
203 y-x+2/3,-x+1/3,+z+1/3
-201 -x+1/3,-y+2/3,-z+2/3
-202 +y+1/3,y-x+2/3,-z+2/3
-203 x-y+1/3,+x+2/3,-z+2/3

# ATOMIC COORDINATES AND DISPLACEMENT PARAMETERS


loop_
_atom_site_type_symbol
_atom_site_label
_atom_site_fract_x
_atom_site_fract_y
_atom_site_fract_z
_atom_site_occupancy
_atom_site_thermal_displace_type
_atom_site_U_iso_or_equiv
_atom_site_symmetry_multiplicity
Ni NI1 0.30485(7) 0.02863(7) -0.28084(26) 1.0 Uiso 0.0199(4) 18
P P1 0.42397(12) 0.03900(15) -0.4300(6) 1.0 Uiso 0.0199(4) 18
O O1 0.47878(25) 0.09348(24) -0.4982(10) 1.0 Uiso 0.0199(4) 18
O O2 0.38754(28) 0.05301(30) -0.2661(10) 1.0 Uiso 0.0199(4) 18
O O3 0.22133(26) 0.00233(23) -0.2131(11) 1.0 Uiso 0.0199(4) 18
O O4 0.32179(29) 0.04517(29) 0.0413(10) 1.0 Uiso 0.0199(4) 18
N N1 0.4549(4) 0.0074(4) -0.0535(15) 1.0 Uiso 0.0199(4) 18
C C1 0.4464(4) -0.0419(4) 0.0973(15) 1.0 Uiso 0.0199(4) 18
C C2 0.4891(5) -0.0562(5) 0.0152(17) 1.0 Uiso 0.0199(4) 18
C C3 0.4375(4) -0.0156(4) -0.2839(16) 1.0 Uiso 0.0199(4) 18

# If you change Z, be sure to change all 3 of the following
_chemical_formula_sum            'C3 N Ni O4 P'
_chemical_formula_weight         203.71
_cell_formula_units_Z            18

# MOLECULAR GEOMETRY

loop_
_geom_bond_atom_site_label_1
_geom_bond_atom_site_label_2
_geom_bond_distance
_geom_bond_site_symmetry_1
_geom_bond_site_symmetry_2
_geom_bond_publ_flag
NI1 O2 2.056(6) . 1_555 N
NI1 O2 2.095(7) . 102_544 N
NI1 O3 2.106(6) . 1_555 N
NI1 O4 2.040(6) . 1_555 N
NI1 O4 2.188(7) . 102_544 N
NI1 N1 2.251(8) . 102_544 N
P1 O1 1.582(6) . 1_555 N
P1 O2 1.615(6) . 1_555 N
P1 O4 1.486(6) . 203_554 N
P1 C3 1.961(10) . 1_555 N
O1 P1 1.582(6) . 1_555 N
O2 NI1 2.056(6) . 1_555 N
O2 NI1 2.095(7) . 203_555 N
O2 P1 1.615(6) . 1_555 N
O3 NI1 2.106(6) . 1_555 N
O4 NI1 2.040(6) . 1_555 N
O4 NI1 2.188(7) . 203_555 N
O4 P1 1.486(6) . 102_545 N
N1 NI1 2.251(8) . 203_555 N
N1 C1 1.579(11) . 1_555 N
N1 C2 1.491(10) . -1_655 N
N1 C3 1.535(10) . 1_555 N
C1 N1 1.579(11) . 1_555 N
C1 C2 1.521(12) . 1_555 N
C2 N1 1.491(10) . -1_655 N
C2 C1 1.521(12) . 1_555 N
C3 P1 1.961(10) . 1_555 N
C3 N1 1.535(10) . 1_555 N

loop_
_geom_angle_atom_site_label_1
_geom_angle_atom_site_label_2
_geom_angle_atom_site_label_3
_geom_angle
_geom_angle_site_symmetry_1
_geom_angle_site_symmetry_2
_geom_angle_site_symmetry_3
_geom_angle_publ_flag
O2 NI1 O2 105.67(33) 1_555 . 102_544 N
O2 NI1 O3 165.97(28) 1_555 . 1_555 N
O2 NI1 O4 77.71(25) 1_555 . 1_555 N
O2 NI1 O3 87.48(26) 102_544 . 1_555 N
O2 NI1 O4 172.64(33) 102_544 . 1_555 N
O3 NI1 O4 88.67(25) 1_555 . 1_555 N
O1 P1 O2 110.9(4) 1_555 . 1_555 N
O1 P1 O4 109.9(4) 1_555 . 203_554 N
O1 P1 C3 113.5(4) 1_555 . 1_555 N
O2 P1 O4 108.4(4) 1_555 . 203_554 N
O2 P1 C3 106.8(5) 1_555 . 1_555 N
O4 P1 C3 107.0(5) 203_554 . 1_555 N
NI1 O2 NI1 98.86(31) 1_555 . 203_555 N
NI1 O2 P1 129.1(4) 1_555 . 1_555 N
NI1 O2 P1 112.1(4) 203_555 . 1_555 N
NI1 O4 P1 137.8(5) 1_555 . 102_545 N
C1 N1 C2 109.6(9) 1_555 . -1_655 N
C1 N1 C3 107.6(8) 1_555 . 1_555 N
C2 N1 C3 119.8(9) -1_655 . 1_555 N
N1 C1 C2 103.8(8) 1_555 . 1_555 N
N1 C2 C1 108.0(8) -1_655 . 1_555 N
P1 C3 N1 104.1(7) 1_555 . 1_555 N

# Powder diffraction data for histogram 1
#==============================================================================
# 9. INSTRUMENT CHARACTERIZATION

_exptl_special_details           
; ?
;

# if regions of the data are excluded, the reason(s) are supplied here:
_pd_proc_info_excluded_regions   
; ?
;

# The following item is used to identify the equipment used to record
# the powder pattern when the diffractogram was measured at a laboratory
# other than the authors' home institution, e.g. when neutron or synchrotron
# radiation is used.

_pd_instr_location               
; ?
;
_pd_calibration_special_details  
# description of the method used
# to calibrate the instrument
; ?
;

_diffrn_ambient_temperature      100
_diffrn_source                   ?
_diffrn_source_target            ?
_diffrn_source_type              ?
_diffrn_measurement_device_type  ?
_diffrn_detector                 ?
_diffrn_detector_type            ? # make or model of detector

_pd_meas_scan_method             ? # options are 'step', 'cont',
# 'tof', 'fixed' or
# 'disp' (= dispersive)
_pd_meas_special_details         
; ?
;

# The following two items identify the program(s) used (if appropriate).
_computing_data_collection       ?
_computing_data_reduction        ?

# Describe any processing performed on the data, prior to refinement.
# For example: a manual Lp correction or a precomputed absorption correction
_pd_proc_info_data_reduction     ?

# The following item is used for angular dispersive measurements only.

_diffrn_radiation_monochromator  ?

# The following items are used to define the size of the instrument.
# Not all distances are appropriate for all instrument types.

_pd_instr_dist_src/mono          ?
_pd_instr_dist_mono/spec         ?
_pd_instr_dist_src/spec          ?
_pd_instr_dist_spec/anal         ?
_pd_instr_dist_anal/detc         ?
_pd_instr_dist_spec/detc         ?

# 10. Specimen size and mounting information

# The next three fields give the specimen dimensions in mm. The equatorial
# plane contains the incident and diffracted beam.

_pd_spec_size_axial              ? # perpendicular to
# equatorial plane

_pd_spec_size_equat              ? # parallel to
# scattering vector
# in transmission

_pd_spec_size_thick              ? # parallel to
# scattering vector
# in reflection

_pd_spec_mounting                
# This field should be
# used to give details of the
# container.
; ?
;

_pd_spec_mount_mode              ? # options are 'reflection'
# or 'transmission'

_pd_spec_shape                   ? # options are 'cylinder'
# 'flat_sheet' or 'irregular'


loop_
_atom_type_symbol
_atom_type_number_in_cell
_atom_type_scat_dispersion_real
_atom_type_scat_dispersion_imag
_atom_type_scat_Cromer_Mann_a1
_atom_type_scat_Cromer_Mann_a2
_atom_type_scat_Cromer_Mann_a3
_atom_type_scat_Cromer_Mann_a4
_atom_type_scat_Cromer_Mann_b1
_atom_type_scat_Cromer_Mann_b2
_atom_type_scat_Cromer_Mann_b3
_atom_type_scat_Cromer_Mann_b4
_atom_type_scat_Cromer_Mann_c
_atom_type_scat_source
Ni 18.0 0.000 0.000 12.8376 3.87850 7.29200 0.25650 4.44380 12.1763 2.38000
66.3421 1.03410 International_Tables_Vol_C
P 18.0 0.000 0.000 6.43450 1.90670 4.17910 27.1570 1.78000 0.52600 1.49080
68.1645 1.11490 International_Tables_Vol_C
O 72.0 0.000 0.000 3.04850 13.2771 2.28680 5.70110 1.54630 0.32390 0.86700
32.9089 0.25080 International_Tables_Vol_C
N 18.0 0.000 0.000 12.2126 0.00570 3.13220 9.89330 2.01250 28.9975 1.16630
0.58260 -11.529 International_Tables_Vol_C
C 54.0 0.000 0.000 2.31000 20.8439 1.02000 10.2075 1.58860 0.56870 0.86500
51.6512 0.21560 International_Tables_Vol_C
_diffrn_radiation_probe          x-ray
_diffrn_radiation_polarisn_ratio 0.95
_diffrn_radiation_wavelength     0.8002
_diffrn_radiation_type           synchrotron
_pd_proc_ls_prof_R_factor        0.0547
_pd_proc_ls_prof_wR_factor       0.0782
_pd_proc_ls_prof_wR_expected     0.0189
_refine_ls_R_Fsqd_factor         0.06400

_pd_proc_ls_background_function  
; GSAS Background function number 7 with 36 terms.
Linear interpolation
1: 1864.53 2: 2830.80 3: 1612.25 4: 1175.82
5: 1502.93 6: 1065.34 7: 1217.91 8: 1381.28
9: 1719.88 10: 2113.82 11: 2206.31 12: 1771.76
13: 1441.48 14: 1169.88 15: 978.935 16: 932.000
17: 788.248 18: 834.488 19: 697.987 20: 688.366
21: 627.511 22: 627.847 23: 633.659 24: 676.383
25: 598.453 26: 633.471 27: 629.162 28: 623.157
29: 665.115 30: 672.012 31: 708.426 32: 730.220
33: 829.257 34: 772.828 35: 767.379 36: 837.042
;

_exptl_absorpt_process_details   
; GSAS Absorption/surface roughness correction: function number 0
No correction is applied.
;
_exptl_absorpt_correction_T_min  1.00000
_exptl_absorpt_correction_T_max  1.00000
# Extinction correction
_gsas_exptl_extinct_corr_T_min   1.00000
_gsas_exptl_extinct_corr_T_max   1.00000

_pd_proc_ls_profile_function     
;
CW Profile function number 3 with 19 terms
Pseudovoigt profile coefficients as parameterized in
P. Thompson, D.E. Cox & J.B. Hastings (1987). J. Appl. Cryst.,20,79-83.
Asymmetry correction of L.W. Finger, D.E. Cox & A. P. Jephcoat (1994).
J. Appl. Cryst.,27,892-900.
#1(GU) = 16.701 #2(GV) = -6.389 #3(GW) = 0.449
#4(GP) = 0.305 #5(LX) = 1.574 #6(LY) = 6.893
#7(S/L) = 0.0020 #8(H/L) = 0.0005
#9(trns) = -4.47 #10(shft)= 0.8511
#11(stec)= -1.85 #12(ptec)= -0.70 #13(sfec)= 0.00
#14(L11) = 0.003 #15(L22) = 0.008 #16(L33) = -0.051
#17(L12) = 0.001 #18(L13) = 0.000 #19(L23) = 0.018
Peak tails are ignored where the intensity is below 0.0100 times the peak
Aniso. broadening axis 0.0 0.0 1.0
;
_pd_proc_ls_peak_cutoff          0.01000
_pd_proc_info_datetime           2008-04-23T12:52:45
_pd_calc_method                  'Rietveld Refinement'

#---- raw/calc data loop -----
_pd_meas_2theta_range_min        0.003
_pd_meas_2theta_range_max        47.982
_pd_meas_2theta_range_inc        0.003
_pd_proc_2theta_range_min        -0.004411
_pd_proc_2theta_range_max        47.97459
_pd_proc_2theta_range_inc        0.003


_pd_meas_number_of_points        15994
_pd_proc_number_of_points        15994
