####################################################################### 
# 
# This file contains crystal structure data downloaded from the 
# Cambridge Structural Database (CSD) hosted by the Cambridge 
# Crystallographic Data Centre (CCDC).
# 
# Full information about CCDC data access policies and citation 
# guidelines are available at http://www.ccdc.cam.ac.uk/access/V1 
# 
# Audit and citation data items may have been added by the CCDC. 
# Please retain this information to preserve the provenance of 
# this file and to allow appropriate attribution of the data. 
# 
#######################################################################

data_FMOF-1T125K
_audit_block_doi                 10.5517/ccqqh41
_database_code_depnum_ccdc_archive 'CCDC 677013'
loop_
_citation_id
_citation_doi
_citation_year
1 10.1002/anie.200804739 2009
_audit_update_record             
;
2008-02-05 deposited with the CCDC.	2024-07-12 downloaded from the CCDC.
;

_audit_creation_method           SHELXL-97
_chemical_name_systematic        
;
?
;
_chemical_name_common            {Ag2[Ag4Tz6]}n
_chemical_melting_point          ?
_chemical_formula_moiety         'C24 Ag6 F36, N18 1.3(N2)'
_chemical_formula_sum            'C24 Ag6 F36 N20.60'
_chemical_formula_weight         1908.07

loop_
_atom_type_symbol
_atom_type_description
_atom_type_scat_dispersion_real
_atom_type_scat_dispersion_imag
_atom_type_scat_source
C C 0.0033 0.0016 'International Tables Vol C Tables 4.2.6.8 and 6.1.1.4'
N N 0.0061 0.0033 'International Tables Vol C Tables 4.2.6.8 and 6.1.1.4'
F F 0.0171 0.0103 'International Tables Vol C Tables 4.2.6.8 and 6.1.1.4'
Ag Ag -0.8971 1.1015 'International Tables Vol C Tables 4.2.6.8 and 6.1.1.4'

_symmetry_cell_setting           Tetragonal
_symmetry_space_group_name_H-M   'I -4 2 d'

loop_
_symmetry_equiv_pos_as_xyz
'x, y, z'
'-x, -y, z'
'y, -x, -z'
'-y, x, -z'
'-x+1/2, y, -z+3/4'
'x+1/2, -y, -z+3/4'
'-y+1/2, -x, z+3/4'
'y+1/2, x, z+3/4'
'x+1/2, y+1/2, z+1/2'
'-x+1/2, -y+1/2, z+1/2'
'y+1/2, -x+1/2, -z+1/2'
'-y+1/2, x+1/2, -z+1/2'
'-x+1, y+1/2, -z+5/4'
'x+1, -y+1/2, -z+5/4'
'-y+1, -x+1/2, z+5/4'
'y+1, x+1/2, z+5/4'

_cell_length_a                   13.0539(5)
_cell_length_b                   13.0539(5)
_cell_length_c                   40.304(3)
_cell_angle_alpha                90.00
_cell_angle_beta                 90.00
_cell_angle_gamma                90.00
_cell_volume                     6867.9(7)
_cell_formula_units_Z            4
_cell_measurement_temperature    125(2)
_cell_measurement_reflns_used    5741
_cell_measurement_theta_min      2.18
_cell_measurement_theta_max      26.21

_exptl_crystal_description       block
_exptl_crystal_colour            colorless
_exptl_crystal_size_max          0.49
_exptl_crystal_size_mid          0.45
_exptl_crystal_size_min          0.37
_exptl_crystal_density_meas      ?
_exptl_crystal_density_diffrn    1.845
_exptl_crystal_density_method    'not measured'
_exptl_crystal_F_000             3577
_exptl_absorpt_coefficient_mu    1.811
_exptl_absorpt_correction_type   multi-scan
_exptl_absorpt_correction_T_min  0.4694
_exptl_absorpt_correction_T_max  0.5523
_exptl_absorpt_process_details   SADABS

_exptl_special_details           
;
?
;

_diffrn_ambient_temperature      125(2)
_diffrn_radiation_wavelength     0.71073
_diffrn_radiation_type           MoK\a
_diffrn_radiation_source         'fine-focus sealed tube'
_diffrn_radiation_monochromator  graphite
_diffrn_measurement_device_type  'Bruker SMART APEX II CCD'
_diffrn_measurement_method       '\w scans'
_diffrn_detector_area_resol_mean ?
_diffrn_standards_number         ?
_diffrn_standards_interval_count ?
_diffrn_standards_interval_time  ?
_diffrn_standards_decay_%        ?
_diffrn_reflns_number            14462
_diffrn_reflns_av_R_equivalents  0.0275
_diffrn_reflns_av_sigmaI/netI    0.0233
_diffrn_reflns_limit_h_min       -16
_diffrn_reflns_limit_h_max       15
_diffrn_reflns_limit_k_min       -14
_diffrn_reflns_limit_k_max       16
_diffrn_reflns_limit_l_min       -49
_diffrn_reflns_limit_l_max       49
_diffrn_reflns_theta_min         1.64
_diffrn_reflns_theta_max         26.04
_reflns_number_total             3375
_reflns_number_gt                3058
_reflns_threshold_expression     >2sigma(I)

_computing_data_collection       'APEX2 (Bruker_AXS, 2007)'
_computing_cell_refinement       'APEX2 (Bruker_AXS, 2007)'
_computing_data_reduction        'APEX2 (Bruker_AXS, 2007)'
_computing_structure_solution    'SHELXS-97 (Sheldrick, 1990)'
_computing_structure_refinement  'SHELXL-97 (Sheldrick, 1997)'
_computing_molecular_graphics    ?
_computing_publication_material  ?

_refine_special_details          
;
Refinement of F^2^ against ALL reflections. The weighted R-factor wR and
goodness of fit S are based on F^2^, conventional R-factors R are based
on F, with F set to zero for negative F^2^. The threshold expression of
F^2^ > 2sigma(F^2^) is used only for calculating R-factors(gt) etc. and is
not relevant to the choice of reflections for refinement. R-factors based
on F^2^ are statistically about twice as large as those based on F, and R-
factors based on ALL data will be even larger.
;

_refine_ls_structure_factor_coef Fsqd
_refine_ls_matrix_type           full
_refine_ls_weighting_scheme      calc
_refine_ls_weighting_details     
'calc w=1/[\s^2^(Fo^2^)+(0.0541P)^2^+27.9928P] where P=(Fo^2^+2Fc^2^)/3'
_atom_sites_solution_primary     direct
_atom_sites_solution_secondary   difmap
_atom_sites_solution_hydrogens   .
_refine_ls_hydrogen_treatment    .
_refine_ls_extinction_method     none
_refine_ls_extinction_coef       ?
_refine_ls_abs_structure_details 'Flack H D (1983), Acta Cryst. A39, 876-881'
_refine_ls_abs_structure_Flack   0.03(6)
_refine_ls_number_reflns         3375
_refine_ls_number_parameters     195
_refine_ls_number_restraints     1
_refine_ls_R_factor_all          0.0514
_refine_ls_R_factor_gt           0.0420
_refine_ls_wR_factor_ref         0.1285
_refine_ls_wR_factor_gt          0.1160
_refine_ls_goodness_of_fit_ref   1.339
_refine_ls_restrained_S_all      1.339
_refine_ls_shift/su_max          0.000
_refine_ls_shift/su_mean         0.000

loop_
_atom_site_label
_atom_site_type_symbol
_atom_site_fract_x
_atom_site_fract_y
_atom_site_fract_z
_atom_site_U_iso_or_equiv
_atom_site_adp_type
_atom_site_occupancy
_atom_site_symmetry_multiplicity
_atom_site_calc_flag
_atom_site_refinement_flags
_atom_site_disorder_assembly
_atom_site_disorder_group
Ag1 Ag 0.0000 0.5000 0.100722(17) 0.04011(19) Uani 1 2 d S . .
Ag2 Ag -0.14323(5) 0.38180(5) 0.244901(14) 0.04996(19) Uani 1 1 d . . .
N1 N 0.0000 0.5000 0.15562(18) 0.0382(16) Uani 1 2 d S . .
N2 N -0.0485(5) 0.5180(5) 0.20835(15) 0.0436(14) Uani 1 1 d . . .
N3 N 0.0089(6) 0.6325(5) 0.06352(13) 0.0454(14) Uani 1 1 d . . .
N4 N -0.0356(5) 0.7401(5) 0.02270(16) 0.0464(15) Uani 1 1 d . . .
N5 N 0.0626(5) 0.7598(5) 0.03101(15) 0.0431(14) Uani 1 1 d . . .
C1 C -0.0730(7) 0.5285(6) 0.17640(19) 0.0472(18) Uani 1 1 d . . .
C2 C -0.1732(7) 0.5714(7) 0.1658(2) 0.0495(19) Uani 1 1 d . . .
C3 C -0.0637(6) 0.6652(6) 0.04272(19) 0.0454(18) Uani 1 1 d . . .
C4 C 0.0860(7) 0.6945(7) 0.0548(2) 0.0459(18) Uani 1 1 d . . .
C5 C 0.1912(8) 0.6958(8) 0.0706(3) 0.060(2) Uani 1 1 d . . .
C6 C -0.1690(8) 0.6187(8) 0.0412(3) 0.066(3) Uani 1 1 d . . .
F1 F -0.1626(5) 0.6668(5) 0.1538(2) 0.088(2) Uani 1 1 d . . .
F2 F -0.2152(4) 0.5181(5) 0.14143(13) 0.0756(17) Uani 1 1 d . . .
F3 F -0.2401(5) 0.5796(7) 0.19001(15) 0.097(2) Uani 1 1 d . . .
F4 F 0.2131(6) 0.7862(5) 0.0822(2) 0.101(3) Uani 1 1 d . . .
F5 F 0.2628(5) 0.6791(8) 0.04905(18) 0.108(3) Uani 1 1 d . . .
F6 F 0.1991(5) 0.6285(5) 0.09359(17) 0.0854(19) Uani 1 1 d . . .
F7 F -0.2051(5) 0.5989(7) 0.07144(16) 0.095(2) Uani 1 1 d . . .
F8 F -0.1656(6) 0.5272(5) 0.0260(2) 0.099(2) Uani 1 1 d . . .
F9 F -0.2344(5) 0.6748(5) 0.02528(19) 0.094(2) Uani 1 1 d . . .
N1S N -0.0406(15) 0.508(7) -0.0424(10) 0.28(2) Uiso 0.65 1 d PD . .

loop_
_atom_site_aniso_label
_atom_site_aniso_U_11
_atom_site_aniso_U_22
_atom_site_aniso_U_33
_atom_site_aniso_U_23
_atom_site_aniso_U_13
_atom_site_aniso_U_12
Ag1 0.0457(4) 0.0428(4) 0.0319(3) 0.000 0.000 0.0016(4)
Ag2 0.0544(3) 0.0553(4) 0.0401(3) -0.0073(3) 0.0095(2) 0.0044(3)
N1 0.041(4) 0.046(5) 0.028(4) 0.000 0.000 0.002(5)
N2 0.042(3) 0.049(4) 0.040(3) -0.003(3) 0.001(3) 0.002(3)
N3 0.057(4) 0.039(3) 0.041(3) 0.001(2) -0.007(3) -0.003(3)
N4 0.051(4) 0.045(4) 0.044(3) 0.003(3) -0.003(3) -0.002(3)
N5 0.047(4) 0.039(3) 0.044(3) 0.009(3) -0.004(3) 0.000(3)
C1 0.050(4) 0.048(5) 0.044(4) -0.003(3) 0.005(3) -0.002(4)
C2 0.053(5) 0.051(5) 0.044(4) -0.006(3) -0.002(3) 0.001(4)
C3 0.048(4) 0.046(4) 0.042(4) -0.001(3) 0.000(3) -0.006(4)
C4 0.052(5) 0.041(4) 0.045(4) -0.003(3) 0.000(3) 0.004(3)
C5 0.054(5) 0.057(5) 0.070(6) 0.020(4) -0.012(4) -0.010(4)
C6 0.067(6) 0.054(5) 0.078(6) 0.018(5) -0.025(5) -0.013(5)
F1 0.079(4) 0.071(4) 0.116(5) 0.018(4) -0.030(4) 0.023(3)
F2 0.058(3) 0.103(5) 0.066(3) -0.024(3) -0.022(2) 0.023(3)
F3 0.056(4) 0.172(8) 0.064(3) 0.005(4) 0.012(3) 0.038(4)
F4 0.108(6) 0.051(3) 0.145(7) -0.002(4) -0.067(5) -0.012(4)
F5 0.049(3) 0.181(9) 0.095(5) 0.005(5) -0.004(3) -0.018(4)
F6 0.069(4) 0.082(4) 0.105(4) 0.036(4) -0.038(3) -0.015(3)
F7 0.062(4) 0.138(7) 0.084(4) 0.038(4) -0.008(3) -0.033(4)
F8 0.088(5) 0.074(4) 0.136(6) -0.011(4) -0.042(4) -0.022(4)
F9 0.060(4) 0.090(4) 0.132(6) 0.051(4) -0.039(4) -0.016(3)

_geom_special_details            
;
All esds (except the esd in the dihedral angle between two l.s. planes)
are estimated using the full covariance matrix. The cell esds are taken
into account individually in the estimation of esds in distances, angles
and torsion angles; correlations between esds in cell parameters are only
used when they are defined by crystal symmetry. An approximate (isotropic)
treatment of cell esds is used for estimating esds involving l.s. planes.
;

loop_
_geom_bond_atom_site_label_1
_geom_bond_atom_site_label_2
_geom_bond_distance
_geom_bond_site_symmetry_2
_geom_bond_publ_flag
Ag1 N1 2.213(7) . ?
Ag1 N3 2.292(6) 2_565 ?
Ag1 N3 2.292(6) . ?
Ag2 N5 2.176(6) 13_444 ?
Ag2 N4 2.176(7) 16_354 ?
Ag2 N2 2.619(7) . ?
Ag2 N2 2.656(6) 12 ?
Ag2 Ag2 3.4529(9) 11_455 ?
Ag2 Ag2 4.8484(13) 2_565 ?
N1 C1 1.322(9) 2_565 ?
N1 C1 1.322(9) . ?
N2 C1 1.334(10) . ?
N2 N2 1.351(13) 2_565 ?
N3 C3 1.335(10) . ?
N3 C4 1.338(11) . ?
N4 C3 1.320(11) . ?
N4 N5 1.350(9) . ?
N4 Ag2 2.176(7) 8_464 ?
N5 C4 1.320(10) . ?
N5 Ag2 2.176(6) 13_454 ?
C1 C2 1.486(12) . ?
C2 F3 1.315(10) . ?
C2 F2 1.321(10) . ?
C2 F1 1.342(11) . ?
C3 C6 1.504(13) . ?
C4 C5 1.513(12) . ?
C5 F6 1.281(11) . ?
C5 F5 1.295(13) . ?
C5 F4 1.301(12) . ?
C6 F9 1.295(11) . ?
C6 F7 1.330(12) . ?
C6 F8 1.344(13) . ?
N1S N1S 1.08(2) 2_565 ?

loop_
_geom_angle_atom_site_label_1
_geom_angle_atom_site_label_2
_geom_angle_atom_site_label_3
_geom_angle
_geom_angle_site_symmetry_1
_geom_angle_site_symmetry_3
_geom_angle_publ_flag
N1 Ag1 N3 130.86(14) . 2_565 ?
N1 Ag1 N3 130.86(14) . . ?
N3 Ag1 N3 98.3(3) 2_565 . ?
N5 Ag2 N4 161.5(2) 13_444 16_354 ?
N5 Ag2 N2 89.9(2) 13_444 . ?
N4 Ag2 N2 106.5(2) 16_354 . ?
N5 Ag2 N2 107.1(2) 13_444 12 ?
N4 Ag2 N2 84.0(2) 16_354 12 ?
N2 Ag2 N2 82.9(3) . 12 ?
N5 Ag2 Ag2 137.29(18) 13_444 11_455 ?
N4 Ag2 Ag2 61.01(18) 16_354 11_455 ?
N2 Ag2 Ag2 49.57(14) . 11_455 ?
N2 Ag2 Ag2 61.23(14) 12 11_455 ?
N5 Ag2 Ag2 95.33(17) 13_444 2_565 ?
N4 Ag2 Ag2 102.97(18) 16_354 2_565 ?
N2 Ag2 Ag2 37.24(14) . 2_565 ?
N2 Ag2 Ag2 46.13(14) 12 2_565 ?
C1 N1 C1 101.4(9) 2_565 . ?
C1 N1 Ag1 129.3(4) 2_565 . ?
C1 N1 Ag1 129.3(4) . . ?
C1 N2 N2 105.1(5) . 2_565 ?
C1 N2 Ag2 120.0(5) . . ?
N2 N2 Ag2 102.0(5) 2_565 . ?
C3 N3 C4 100.2(6) . . ?
C3 N3 Ag1 128.0(5) . . ?
C4 N3 Ag1 131.7(5) . . ?
C3 N4 N5 104.6(7) . . ?
C3 N4 Ag2 134.1(6) . 8_464 ?
N5 N4 Ag2 117.7(5) . 8_464 ?
C4 N5 N4 106.1(7) . . ?
C4 N5 Ag2 135.2(6) . 13_454 ?
N4 N5 Ag2 118.7(5) . 13_454 ?
N1 C1 N2 114.2(7) . . ?
N1 C1 C2 123.9(7) . . ?
N2 C1 C2 121.9(7) . . ?
F3 C2 F2 108.6(8) . . ?
F3 C2 F1 105.0(8) . . ?
F2 C2 F1 105.4(7) . . ?
F3 C2 C1 113.6(7) . . ?
F2 C2 C1 112.4(7) . . ?
F1 C2 C1 111.2(8) . . ?
N4 C3 N3 115.1(7) . . ?
N4 C3 C6 121.9(7) . . ?
N3 C3 C6 123.0(7) . . ?
N5 C4 N3 114.0(7) . . ?
N5 C4 C5 120.6(8) . . ?
N3 C4 C5 125.4(7) . . ?
F6 C5 F5 108.1(9) . . ?
F6 C5 F4 110.2(9) . . ?
F5 C5 F4 103.5(9) . . ?
F6 C5 C4 111.7(8) . . ?
F5 C5 C4 111.8(8) . . ?
F4 C5 C4 111.1(8) . . ?
F9 C6 F7 109.4(10) . . ?
F9 C6 F8 107.3(8) . . ?
F7 C6 F8 104.8(8) . . ?
F9 C6 C3 113.2(8) . . ?
F7 C6 C3 111.5(8) . . ?
F8 C6 C3 110.2(9) . . ?


_diffrn_measured_fraction_theta_max 0.995
_diffrn_reflns_theta_full        26.04
_diffrn_measured_fraction_theta_full 0.995
_refine_diff_density_max         0.914
_refine_diff_density_min         -0.571
_refine_diff_density_rms         0.136
