####################################################################### 
# 
# This file contains crystal structure data downloaded from the 
# Cambridge Structural Database (CSD) hosted by the Cambridge 
# Crystallographic Data Centre (CCDC).
# 
# Full information about CCDC data access policies and citation 
# guidelines are available at http://www.ccdc.cam.ac.uk/access/V1 
# 
# Audit and citation data items may have been added by the CCDC. 
# Please retain this information to preserve the provenance of 
# this file and to allow appropriate attribution of the data. 
# 
#######################################################################

data_nn202
_audit_block_doi                 10.5517/cct2wg6
_database_code_depnum_ccdc_archive 'CCDC 747548'
loop_
_citation_id
_citation_doi
_citation_year
1 10.1002/zaac.201000274 2011





_audit_update_record             
;
2009-09-11 deposited with the CCDC.	2024-07-12 downloaded from the CCDC.
;


_vrf_PLAT601_nn202               
;
PROBLEM: Structure Contains Solvent Accessible VOIDS of . 207.00 A**3
RESPONSE: voids are existing, are due to oligomeric nature of molecule
;

_chemical_name_common            Iron(II)acetate
_chemical_compound_source        
;
The compound was synthesized upon dissoluiton of iron chips in glacial acetic
acid under inter gas. Upon slow cooling to room temperature, crystals were
obtained.
;
_exptl_crystal_description       rod
_exptl_crystal_colour            colourless
_exptl_crystal_size_max          0.07
_exptl_crystal_size_mid          0.02
_exptl_crystal_size_min          0.01
_exptl_crystal_density_method    'not measured'
_exptl_crystal_density_meas      ?
_exptl_special_details           ?
_audit_creation_date             30-Apr-09

_diffrn_ambient_temperature      200(2)
_diffrn_source_type              'FR 591 generator'
_diffrn_source_power             3.025
_diffrn_source_voltage           55.00
_diffrn_source_current           55.00
_diffrn_radiation_wavelength     0.71073
_diffrn_radiation_type           MoK\a
_diffrn_radiation_source         'rotating anode'
_diffrn_radiation_monochromator  'MONTEL, graded multilayered X-ray optics'
_diffrn_radiation_collimation    0.20
_diffrn_measurement_device       '95mm CCD camera on \k-goniostat'
_diffrn_measurement_device_type  'Nonius KappaCCD'
_diffrn_measurement_method       'CCD; rotation images; thick slices'
_diffrn_detector_area_resol_mean 9


_diffrn_special_details          ?
_diffrn_orient_matrix_type       'by Bruker AXS Collect from scalepack cell'
_diffrn_orient_matrix_UB_11      -0.0988402
_diffrn_orient_matrix_UB_12      -0.0251625
_diffrn_orient_matrix_UB_13      -0.0157378
_diffrn_orient_matrix_UB_21      -0.0673399
_diffrn_orient_matrix_UB_22      0.0265599
_diffrn_orient_matrix_UB_23      0.0305037
_diffrn_orient_matrix_UB_31      -0.0169924
_diffrn_orient_matrix_UB_32      0.0411079
_diffrn_orient_matrix_UB_33      -0.0293417

loop_
_reflns_scale_group_code
_reflns_scale_meas_F
1 1.0

_cell_length_a                   18.1715(4)
_cell_length_b                   22.1453(5)
_cell_length_c                   8.2781(2)
_cell_angle_alpha                90.00
_cell_angle_beta                 90.00
_cell_angle_gamma                90.00
_cell_volume                     3331.22(13)
_cell_measurement_temperature    200(2)
_cell_measurement_reflns_used    10952
_cell_measurement_theta_min      3.134
_cell_measurement_theta_max      25.350
_cell_special_details            ?


loop_
_exptl_crystal_face_index_h
_exptl_crystal_face_index_k
_exptl_crystal_face_index_l
_exptl_crystal_face_perp_dist
1 0 0 0.035000
-1 0 0 0.035000
0 1 0 0.010000
0 -1 0 0.001000
0 0 1 0.010000
0 0 -1 0.010000


#:----------------------------------------------------------------------------
#:---------------------------ABSORPTION CORRECTION----------------------------
#:----------------------------------------------------------------------------
_exptl_absorpt_coefficient_mu    2.203
_exptl_absorpt_correction_type   none
_exptl_absorpt_correction_T_min  ?
_exptl_absorpt_correction_T_max  ?
_exptl_absorpt_process_details   ?



#:----------------------------------------------------------------------------
#:------------------------REFLECTION DATA ANALYSIS----------------------------
#:----------------------------------------------------------------------------
_diffrn_reflns_number            19925
_diffrn_reflns_av_R_equivalents  0.0523
_diffrn_reflns_av_sigmaI/netI    0.0291
_diffrn_reflns_limit_h_min       -21
_diffrn_reflns_limit_h_max       21
_diffrn_reflns_limit_k_min       -24
_diffrn_reflns_limit_k_max       26
_diffrn_reflns_limit_l_min       -9
_diffrn_reflns_limit_l_max       9
_diffrn_reflns_theta_min         3.27
_diffrn_reflns_theta_max         25.34
_diffrn_measured_fraction_theta_max 0.994
_diffrn_reflns_theta_full        25.34
_diffrn_measured_fraction_theta_full 0.994

#:----------------------------------------------------------------------------
#:---------------------STRUCTURE SOLUTION AND REFINEMENT----------------------
#:----------------------------------------------------------------------------
_symmetry_cell_setting           orthorhombic
_symmetry_space_group_name_H-M   'P b c n'
_symmetry_Int_Tables_number      60
_symmetry_space_group_name_Hall  '-P 2n 2ab'

loop_
_symmetry_equiv_pos_as_xyz
'x, y, z'
'-x+1/2, -y+1/2, z+1/2'
'x+1/2, -y+1/2, -z'
'-x, y, -z+1/2'
'-x, -y, -z'
'x-1/2, y-1/2, -z-1/2'
'-x-1/2, y-1/2, z'
'x, -y, z-1/2'

loop_
_atom_type_symbol
_atom_type_description
_atom_type_scat_dispersion_real
_atom_type_scat_dispersion_imag
_atom_type_scat_source
C C 0.0033 0.0016 'International Tables Vol C Tables 4.2.6.8 and 6.1.1.4'
H H 0.0000 0.0000 'International Tables Vol C Tables 4.2.6.8 and 6.1.1.4'
Fe Fe 0.3463 0.8444 'International Tables Vol C Tables 4.2.6.8 and 6.1.1.4'
O O 0.0106 0.0060 'International Tables Vol C Tables 4.2.6.8 and 6.1.1.4'

_reflns_number_total             3023
_reflns_number_gt                2532
_reflns_threshold_expression     >2sigma(I)
_reflns_special_details          ?


_refine_ls_structure_factor_coef Fsqd
_refine_ls_matrix_type           full
_refine_ls_weighting_scheme      calc
_refine_ls_weighting_details     
'calc w=1/[\s^2^(Fo^2^)+(0.0537P)^2^+2.3145P] where P=(Fo^2^+2Fc^2^)/3'
_atom_sites_solution_primary     direct
_atom_sites_solution_secondary   difmap
_atom_sites_solution_hydrogens   geom
_refine_ls_hydrogen_treatment    constr
_refine_ls_extinction_method     none
_refine_ls_extinction_coef       ?
_refine_ls_abs_structure_details ?
_refine_ls_abs_structure_Flack   ?
_refine_ls_number_reflns         3023
_refine_ls_number_parameters     209
_refine_ls_number_restraints     0
_refine_ls_R_factor_all          0.0471
_refine_ls_R_factor_gt           0.0352
_refine_ls_wR_factor_ref         0.0937
_refine_ls_wR_factor_gt          0.0879
_refine_ls_goodness_of_fit_ref   1.083
_refine_ls_restrained_S_all      1.083
_refine_ls_shift/su_max          0.000
_refine_ls_shift/su_mean         0.000
_refine_diff_density_max         0.797
_refine_diff_density_min         -0.472
_refine_diff_density_rms         0.090

_refine_special_details          ?


#:----------------------------------------------------------------------------
#:-----------------------------REFERENCES-------------------------------------
#:----------------------------------------------------------------------------
_computing_data_collection       'Collect (Bruker AXS BV, 1997-2004)'
_computing_cell_refinement       'HKL Scalepack (Otwinowski & Minor 1997)'
_computing_data_reduction        
'HKL Denzo and Scalepack (Otwinowski & Minor 1997)'
_computing_structure_solution    'SHELXS-97 (Sheldrick, 1990)'


_computing_structure_refinement  
'SHELXL-97 (G. M. Sheldrick. University of G\"ottingen, 97-2 version)'

_computing_molecular_graphics    ?


_computing_publication_material  ?


#:----------------------------------------------------------------------------
#:---------------------TABLES AND GEOMETRICAL DATA----------------------------
#:----------------------------------------------------------------------------

loop_
_atom_site_label
_atom_site_type_symbol
_atom_site_fract_x
_atom_site_fract_y
_atom_site_fract_z
_atom_site_U_iso_or_equiv
_atom_site_adp_type
_atom_site_occupancy
_atom_site_symmetry_multiplicity
_atom_site_calc_flag
_atom_site_refinement_flags
_atom_site_disorder_assembly
_atom_site_disorder_group
Fe1 Fe 0.5000 0.34852(3) 0.7500 0.02000(17) Uani 1 2 d S . .
Fe2 Fe 0.32494(2) 0.31966(2) 0.65657(5) 0.01891(15) Uani 1 1 d . . .
Fe3 Fe 0.29729(3) 0.19188(2) 0.47060(5) 0.02058(15) Uani 1 1 d . . .
O1 O 0.43948(12) 0.28396(10) 0.6036(3) 0.0234(5) Uani 1 1 d . . .
O2 O 0.40439(13) 0.21073(12) 0.4372(3) 0.0330(6) Uani 1 1 d . . .
O3 O 0.46242(13) 0.41749(11) 0.6012(3) 0.0286(5) Uani 1 1 d . . .
O4 O 0.34661(13) 0.39597(10) 0.5369(3) 0.0285(5) Uani 1 1 d . . .
O5 O 0.32088(16) 0.09459(11) 0.4541(3) 0.0362(6) Uani 1 1 d . . .
O6 O 0.27611(12) 0.14390(9) 0.2475(2) 0.0226(5) Uani 1 1 d . . .
O7 O 0.26482(12) 0.28298(10) 0.4424(2) 0.0229(5) Uani 1 1 d . . .
O8 O 0.30567(12) 0.22980(10) 0.7256(2) 0.0208(5) Uani 1 1 d . . .
O9 O 0.19501(13) 0.16960(12) 0.5519(3) 0.0295(6) Uani 1 1 d . . .
O10 O 0.10902(12) 0.15849(10) 0.3641(2) 0.0224(5) Uani 1 1 d . . .
C1 C 0.45284(18) 0.23644(15) 0.5204(4) 0.0243(7) Uani 1 1 d . . .
C2 C 0.5278(2) 0.20938(19) 0.5209(5) 0.0418(10) Uani 1 1 d . . .
H21 H 0.5248 0.1671 0.5553 0.063 Uiso 1 1 calc R . .
H22 H 0.5594 0.2318 0.5957 0.063 Uiso 1 1 calc R . .
H23 H 0.5487 0.2114 0.4118 0.063 Uiso 1 1 calc R . .
C3 C 0.40296(18) 0.42914(15) 0.5337(4) 0.0236(7) Uani 1 1 d . . .
C4 C 0.3958(2) 0.48733(17) 0.4406(5) 0.0404(10) Uani 1 1 d . . .
H41 H 0.3602 0.5137 0.4947 0.061 Uiso 1 1 calc R . .
H42 H 0.3787 0.4786 0.3308 0.061 Uiso 1 1 calc R . .
H43 H 0.4438 0.5075 0.4358 0.061 Uiso 1 1 calc R . .
C5 C 0.29705(19) 0.09388(15) 0.3123(4) 0.0266(8) Uani 1 1 d . . .
C6 C 0.2932(3) 0.03672(18) 0.2183(5) 0.0433(10) Uani 1 1 d . . .
H61 H 0.3375 0.0327 0.1516 0.065 Uiso 1 1 calc R . .
H62 H 0.2496 0.0374 0.1486 0.065 Uiso 1 1 calc R . .
H63 H 0.2900 0.0024 0.2928 0.065 Uiso 1 1 calc R . .
C7 C 0.22070(17) 0.30324(14) 0.3379(4) 0.0188(7) Uani 1 1 d . . .
C8 C 0.19748(19) 0.36785(15) 0.3457(4) 0.0268(8) Uani 1 1 d . . .
H81 H 0.1726 0.3755 0.4488 0.040 Uiso 1 1 calc R . .
H82 H 0.1636 0.3766 0.2565 0.040 Uiso 1 1 calc R . .
H83 H 0.2409 0.3939 0.3369 0.040 Uiso 1 1 calc R . .
C9 C 0.13071(18) 0.15860(15) 0.5109(4) 0.0228(7) Uani 1 1 d . . .
C10 C 0.0763(2) 0.1463(2) 0.6419(4) 0.0366(9) Uani 1 1 d . . .
H101 H 0.0699 0.1026 0.6542 0.055 Uiso 1 1 calc R . .
H102 H 0.0290 0.1648 0.6140 0.055 Uiso 1 1 calc R . .
H103 H 0.0943 0.1635 0.7437 0.055 Uiso 1 1 calc R . .

loop_
_atom_site_aniso_label
_atom_site_aniso_U_11
_atom_site_aniso_U_22
_atom_site_aniso_U_33
_atom_site_aniso_U_23
_atom_site_aniso_U_13
_atom_site_aniso_U_12
Fe1 0.0183(3) 0.0193(3) 0.0224(3) 0.000 -0.0012(3) 0.000
Fe2 0.0205(3) 0.0176(3) 0.0187(3) 0.00095(17) -0.00137(18) -0.00284(18)
Fe3 0.0211(3) 0.0194(3) 0.0212(3) -0.00138(18) -0.00101(19) -0.00177(18)
O1 0.0212(11) 0.0213(12) 0.0276(12) -0.0028(10) 0.0012(10) -0.0005(9)
O2 0.0257(13) 0.0402(15) 0.0331(13) -0.0151(11) 0.0025(11) -0.0045(11)
O3 0.0234(12) 0.0255(13) 0.0369(14) 0.0076(10) -0.0050(11) -0.0040(10)
O4 0.0254(12) 0.0242(13) 0.0359(13) 0.0065(10) -0.0055(10) -0.0070(10)
O5 0.0538(16) 0.0259(14) 0.0290(14) 0.0017(11) -0.0109(12) 0.0074(12)
O6 0.0251(12) 0.0198(12) 0.0230(11) 0.0004(9) -0.0017(9) 0.0005(9)
O7 0.0271(12) 0.0199(12) 0.0218(11) -0.0022(9) -0.0049(10) -0.0005(10)
O8 0.0228(11) 0.0208(12) 0.0188(11) -0.0006(9) 0.0010(9) -0.0039(9)
O9 0.0243(13) 0.0419(15) 0.0225(12) -0.0010(10) -0.0003(10) -0.0088(10)
O10 0.0207(11) 0.0291(13) 0.0176(11) 0.0007(9) 0.0006(9) -0.0021(10)
C1 0.0225(17) 0.0248(18) 0.0255(17) -0.0032(14) 0.0035(14) -0.0035(14)
C2 0.030(2) 0.033(2) 0.063(3) -0.0153(19) -0.0039(19) 0.0030(17)
C3 0.0241(18) 0.0220(18) 0.0248(17) 0.0004(13) 0.0011(14) -0.0016(13)
C4 0.038(2) 0.031(2) 0.052(2) 0.0169(18) -0.0117(19) -0.0115(17)
C5 0.0281(18) 0.0227(19) 0.0290(18) 0.0002(14) 0.0021(15) 0.0015(14)
C6 0.066(3) 0.024(2) 0.040(2) -0.0052(17) -0.010(2) 0.0077(19)
C7 0.0208(16) 0.0196(16) 0.0158(15) 0.0005(12) 0.0035(13) -0.0044(13)
C8 0.0340(19) 0.0216(18) 0.0249(17) -0.0007(14) -0.0045(15) 0.0021(14)
C9 0.0233(18) 0.0214(17) 0.0237(17) -0.0011(13) -0.0008(14) -0.0010(13)
C10 0.0260(19) 0.061(3) 0.0228(17) 0.0042(17) 0.0032(15) -0.0065(18)

loop_
_geom_bond_atom_site_label_1
_geom_bond_atom_site_label_2
_geom_bond_distance
_geom_bond_site_symmetry_2
_geom_bond_publ_flag
Fe1 O3 2.078(2) 4_656 ?
Fe1 O3 2.078(2) . ?
Fe1 O1 2.173(2) . ?
Fe1 O1 2.173(2) 4_656 ?
Fe1 O10 2.200(2) 2 ?
Fe1 O10 2.200(2) 3_556 ?
Fe2 O4 1.998(2) . ?
Fe2 O8 2.100(2) . ?
Fe2 O6 2.142(2) 2 ?
Fe2 O10 2.151(2) 2 ?
Fe2 O7 2.236(2) . ?
Fe2 O1 2.269(2) . ?
Fe3 O2 2.010(2) . ?
Fe3 O9 2.037(2) . ?
Fe3 O7 2.115(2) . ?
Fe3 O6 2.165(2) . ?
Fe3 O5 2.201(2) . ?
Fe3 O8 2.277(2) . ?
O1 C1 1.281(4) . ?
O2 C1 1.254(4) . ?
O3 C3 1.243(4) . ?
O4 C3 1.261(4) . ?
O5 C5 1.252(4) . ?
O6 C5 1.288(4) . ?
O6 Fe2 2.142(2) 2_554 ?
O7 C7 1.261(4) . ?
O8 C7 1.276(4) 2 ?
O9 C9 1.241(4) . ?
O10 C9 1.278(4) . ?
O10 Fe2 2.151(2) 2_554 ?
O10 Fe1 2.200(2) 2_554 ?
C1 C2 1.489(5) . ?
C2 H21 0.9800 . ?
C2 H22 0.9800 . ?
C2 H23 0.9800 . ?
C3 C4 1.507(5) . ?
C4 H41 0.9800 . ?
C4 H42 0.9800 . ?
C4 H43 0.9800 . ?
C5 C6 1.487(5) . ?
C6 H61 0.9800 . ?
C6 H62 0.9800 . ?
C6 H63 0.9800 . ?
C7 O8 1.276(4) 2_554 ?
C7 C8 1.493(5) . ?
C8 H81 0.9800 . ?
C8 H82 0.9800 . ?
C8 H83 0.9800 . ?
C9 C10 1.492(5) . ?
C10 H101 0.9800 . ?
C10 H102 0.9800 . ?
C10 H103 0.9800 . ?

loop_
_geom_angle_atom_site_label_1
_geom_angle_atom_site_label_2
_geom_angle_atom_site_label_3
_geom_angle
_geom_angle_site_symmetry_1
_geom_angle_site_symmetry_3
_geom_angle_publ_flag
O3 Fe1 O3 85.37(13) 4_656 . ?
O3 Fe1 O1 168.72(9) 4_656 . ?
O3 Fe1 O1 89.23(9) . . ?
O3 Fe1 O1 89.23(9) 4_656 4_656 ?
O3 Fe1 O1 168.72(9) . 4_656 ?
O1 Fe1 O1 97.72(12) . 4_656 ?
O3 Fe1 O10 95.35(9) 4_656 2 ?
O3 Fe1 O10 90.60(9) . 2 ?
O1 Fe1 O10 74.78(8) . 2 ?
O1 Fe1 O10 99.78(8) 4_656 2 ?
O3 Fe1 O10 90.60(9) 4_656 3_556 ?
O3 Fe1 O10 95.35(9) . 3_556 ?
O1 Fe1 O10 99.78(8) . 3_556 ?
O1 Fe1 O10 74.78(8) 4_656 3_556 ?
O10 Fe1 O10 171.91(12) 2 3_556 ?
O4 Fe2 O8 165.78(9) . . ?
O4 Fe2 O6 91.40(9) . 2 ?
O8 Fe2 O6 96.80(8) . 2 ?
O4 Fe2 O10 95.49(9) . 2 ?
O8 Fe2 O10 95.10(8) . 2 ?
O6 Fe2 O10 96.48(8) 2 2 ?
O4 Fe2 O7 90.59(9) . . ?
O8 Fe2 O7 77.89(8) . . ?
O6 Fe2 O7 89.81(8) 2 . ?
O10 Fe2 O7 171.12(9) 2 . ?
O4 Fe2 O1 91.03(9) . . ?
O8 Fe2 O1 82.84(8) . . ?
O6 Fe2 O1 170.17(8) 2 . ?
O10 Fe2 O1 73.80(8) 2 . ?
O7 Fe2 O1 99.69(8) . . ?
O2 Fe3 O9 168.30(10) . . ?
O2 Fe3 O7 93.25(10) . . ?
O9 Fe3 O7 90.75(10) . . ?
O2 Fe3 O6 99.01(9) . . ?
O9 Fe3 O6 90.05(9) . . ?
O7 Fe3 O6 108.92(8) . . ?
O2 Fe3 O5 90.35(11) . . ?
O9 Fe3 O5 87.78(11) . . ?
O7 Fe3 O5 168.89(9) . . ?
O6 Fe3 O5 60.09(9) . . ?
O2 Fe3 O8 89.21(9) . . ?
O9 Fe3 O8 81.02(8) . . ?
O7 Fe3 O8 76.67(8) . . ?
O6 Fe3 O8 169.63(8) . . ?
O5 Fe3 O8 113.92(9) . . ?
C1 O1 Fe1 138.1(2) . . ?
C1 O1 Fe2 124.3(2) . . ?
Fe1 O1 Fe2 97.30(8) . . ?
C1 O2 Fe3 134.3(2) . . ?
C3 O3 Fe1 134.8(2) . . ?
C3 O4 Fe2 131.6(2) . . ?
C5 O5 Fe3 90.2(2) . . ?
C5 O6 Fe2 136.3(2) . 2_554 ?
C5 O6 Fe3 90.82(19) . . ?
Fe2 O6 Fe3 105.49(9) 2_554 . ?
C7 O7 Fe3 126.31(19) . . ?
C7 O7 Fe2 136.5(2) . . ?
Fe3 O7 Fe2 97.04(9) . . ?
C7 O8 Fe2 143.5(2) 2 . ?
C7 O8 Fe3 116.03(18) 2 . ?
Fe2 O8 Fe3 96.21(8) . . ?
C9 O9 Fe3 144.7(2) . . ?
C9 O10 Fe2 126.0(2) . 2_554 ?
C9 O10 Fe1 133.3(2) . 2_554 ?
Fe2 O10 Fe1 100.10(8) 2_554 2_554 ?
O2 C1 O1 122.4(3) . . ?
O2 C1 C2 117.5(3) . . ?
O1 C1 C2 120.2(3) . . ?
C1 C2 H21 109.5 . . ?
C1 C2 H22 109.5 . . ?
H21 C2 H22 109.5 . . ?
C1 C2 H23 109.5 . . ?
H21 C2 H23 109.5 . . ?
H22 C2 H23 109.5 . . ?
O3 C3 O4 125.2(3) . . ?
O3 C3 C4 118.8(3) . . ?
O4 C3 C4 116.0(3) . . ?
C3 C4 H41 109.5 . . ?
C3 C4 H42 109.5 . . ?
H41 C4 H42 109.5 . . ?
C3 C4 H43 109.5 . . ?
H41 C4 H43 109.5 . . ?
H42 C4 H43 109.5 . . ?
O5 C5 O6 118.8(3) . . ?
O5 C5 C6 121.2(3) . . ?
O6 C5 C6 120.0(3) . . ?
C5 C6 H61 109.5 . . ?
C5 C6 H62 109.5 . . ?
H61 C6 H62 109.5 . . ?
C5 C6 H63 109.5 . . ?
H61 C6 H63 109.5 . . ?
H62 C6 H63 109.5 . . ?
O7 C7 O8 122.3(3) . 2_554 ?
O7 C7 C8 119.4(3) . . ?
O8 C7 C8 118.3(3) 2_554 . ?
C7 C8 H81 109.5 . . ?
C7 C8 H82 109.5 . . ?
H81 C8 H82 109.5 . . ?
C7 C8 H83 109.5 . . ?
H81 C8 H83 109.5 . . ?
H82 C8 H83 109.5 . . ?
O9 C9 O10 123.4(3) . . ?
O9 C9 C10 117.4(3) . . ?
O10 C9 C10 119.1(3) . . ?
C9 C10 H101 109.5 . . ?
C9 C10 H102 109.5 . . ?
H101 C10 H102 109.5 . . ?
C9 C10 H103 109.5 . . ?
H101 C10 H103 109.5 . . ?
H102 C10 H103 109.5 . . ?

loop_
_geom_torsion_atom_site_label_1
_geom_torsion_atom_site_label_2
_geom_torsion_atom_site_label_3
_geom_torsion_atom_site_label_4
_geom_torsion
_geom_torsion_site_symmetry_1
_geom_torsion_site_symmetry_2
_geom_torsion_site_symmetry_3
_geom_torsion_site_symmetry_4
_geom_torsion_publ_flag
O3 Fe1 O1 C1 -176.3(4) 4_656 . . . ?
O3 Fe1 O1 C1 122.4(3) . . . . ?
O1 Fe1 O1 C1 -48.7(3) 4_656 . . . ?
O10 Fe1 O1 C1 -146.8(3) 2 . . . ?
O10 Fe1 O1 C1 27.1(3) 3_556 . . . ?
O3 Fe1 O1 Fe2 -2.3(5) 4_656 . . . ?
O3 Fe1 O1 Fe2 -63.59(9) . . . . ?
O1 Fe1 O1 Fe2 125.33(10) 4_656 . . . ?
O10 Fe1 O1 Fe2 27.24(8) 2 . . . ?
O10 Fe1 O1 Fe2 -158.88(8) 3_556 . . . ?
O4 Fe2 O1 C1 -117.5(3) . . . . ?
O8 Fe2 O1 C1 49.7(2) . . . . ?
O6 Fe2 O1 C1 138.2(5) 2 . . . ?
O10 Fe2 O1 C1 147.1(3) 2 . . . ?
O7 Fe2 O1 C1 -26.7(3) . . . . ?
O4 Fe2 O1 Fe1 67.35(9) . . . . ?
O8 Fe2 O1 Fe1 -125.52(9) . . . . ?
O6 Fe2 O1 Fe1 -37.0(5) 2 . . . ?
O10 Fe2 O1 Fe1 -28.07(8) 2 . . . ?
O7 Fe2 O1 Fe1 158.13(8) . . . . ?
O9 Fe3 O2 C1 -37.4(7) . . . . ?
O7 Fe3 O2 C1 72.4(3) . . . . ?
O6 Fe3 O2 C1 -177.9(3) . . . . ?
O5 Fe3 O2 C1 -118.1(3) . . . . ?
O8 Fe3 O2 C1 -4.2(3) . . . . ?
O3 Fe1 O3 C3 -130.1(4) 4_656 . . . ?
O1 Fe1 O3 C3 39.9(3) . . . . ?
O1 Fe1 O3 C3 168.2(4) 4_656 . . . ?
O10 Fe1 O3 C3 -34.8(3) 2 . . . ?
O10 Fe1 O3 C3 139.7(3) 3_556 . . . ?
O8 Fe2 O4 C3 -105.9(4) . . . . ?
O6 Fe2 O4 C3 128.7(3) 2 . . . ?
O10 Fe2 O4 C3 32.1(3) 2 . . . ?
O7 Fe2 O4 C3 -141.5(3) . . . . ?
O1 Fe2 O4 C3 -41.8(3) . . . . ?
O2 Fe3 O5 C5 -102.0(2) . . . . ?
O9 Fe3 O5 C5 89.5(2) . . . . ?
O7 Fe3 O5 C5 7.0(6) . . . . ?
O6 Fe3 O5 C5 -1.83(19) . . . . ?
O8 Fe3 O5 C5 168.67(19) . . . . ?
O2 Fe3 O6 C5 87.0(2) . . . . ?
O9 Fe3 O6 C5 -85.6(2) . . . . ?
O7 Fe3 O6 C5 -176.43(18) . . . . ?
O5 Fe3 O6 C5 1.78(19) . . . . ?
O8 Fe3 O6 C5 -55.2(5) . . . . ?
O2 Fe3 O6 Fe2 -134.04(11) . . . 2_554 ?
O9 Fe3 O6 Fe2 53.38(11) . . . 2_554 ?
O7 Fe3 O6 Fe2 -37.43(12) . . . 2_554 ?
O5 Fe3 O6 Fe2 140.78(13) . . . 2_554 ?
O8 Fe3 O6 Fe2 83.8(5) . . . 2_554 ?
O2 Fe3 O7 C7 121.0(2) . . . . ?
O9 Fe3 O7 C7 -70.0(2) . . . . ?
O6 Fe3 O7 C7 20.3(3) . . . . ?
O5 Fe3 O7 C7 12.2(6) . . . . ?
O8 Fe3 O7 C7 -150.6(3) . . . . ?
O2 Fe3 O7 Fe2 -63.22(9) . . . . ?
O9 Fe3 O7 Fe2 105.79(9) . . . . ?
O6 Fe3 O7 Fe2 -163.