####################################################################### 
# 
# This file contains crystal structure data downloaded from the 
# Cambridge Structural Database (CSD) hosted by the Cambridge 
# Crystallographic Data Centre (CCDC).
# 
# Full information about CCDC data access policies and citation 
# guidelines are available at http://www.ccdc.cam.ac.uk/access/V1 
# 
# Audit and citation data items may have been added by the CCDC. 
# Please retain this information to preserve the provenance of 
# this file and to allow appropriate attribution of the data. 
# 
#######################################################################

data_cmpd_n
_audit_block_doi                 10.5517/cc46j61
_database_code_depnum_ccdc_archive 'CCDC 125432'
loop_
_citation_id
_citation_doi
_citation_year
1 10.1002/anie.199706361 1997
_audit_update_record             
;
1996-12-12 deposited with the CCDC.	2024-07-12 downloaded from the CCDC.
;

_audit_creation_method           'manually at CCDC'

_chemical_name_systematic        
;  
Cadmium (II) tricyanomethanide tetramethoxyborate,
methanol solvate
;
_chemical_name_common            ?
_chemical_formula_sum            CdC8H12N3BO4.1.6CH3OH
_chemical_formula_moiety         Cd(tcm)(B(OMe)4).~1.6MeOH.

_chemical_formula_weight         388.73

_symmetry_cell_setting           Hexagonal
_symmetry_space_group_name_H-M   P6(1)22
_symmetry_Int_Tables_number      178

loop_
_symmetry_equiv_pos_as_xyz
?
?
?

_cell_length_a                   11.477(3)
_cell_length_b                   11.477(3)
_cell_length_c                   22.585(4)
_cell_angle_alpha                90.0
_cell_angle_beta                 90.0
_cell_angle_gamma                120.0
_cell_volume                     2576.1
_cell_formula_units_Z            6

_exptl_crystal_density_diffrn    1.51

_diffrn_ambient_temperature      295

_diffrn_source                   ?

_diffrn_radiation_probe          x-ray
_diffrn_radiation_type           ?
_chemical_melting_point          ?


_exptl_crystal_description       ?
_exptl_crystal_colour            colorless

_exptl_special_details           
;
Absolute configuration determined by X-rays: In order to determine
the absolute configuration a refinement was carried out in SHELX-93.
A value of -0.03 (+/-0.12) was obtained for the Flack parameter
which indicated the correct configuration had been obtained.

Crystal dimensions                 +/-(011)      0.138
(distance in mm               +/-(101)      0.138
from centroid)              +/-(10-1)     0.138
+/-(-111)     0.138
+/-(1-11)     0.138
+/-(01-1)     0.138
Temp., K                           295(1)
Radiation and wavelength, A        
MoKa (graphite monochromator)
lambda = 0.71069
;


_diffrn_special_details          
; 
?

;

_refine_special_details          
; 
Instrument                         Enraf-Nonius CAD-4F 
Diffractometer
No. of intensity control           3 every 10 000 s of X-ray
reflections                  exposure time; no 
significant crystal decay
No. of orientation control
reflections                  3 every 100 reflections
F(000)                             1211.99
mu, cm-1                           12.64
Transmission factors (SHELX-76)
min.                          0.6898
max.                          0.7767
2-theta Limits (in degrees)
min.                          2
max.                          55
hkl Range                         -14 <= h <= 0
0 <= k <= 14
-4 <= l <= 27
No. of reflections measured        4918
No. of unique reflections          1936
Rint                               0.0313
No. of reflections used in      
refinement [I3 3s(I)]        1497
No. of parameters                  88
Weighting scheme                   w = k[s2(Fo) + g|Fo|2]-1 
final value of k              0.7736
final value of g              0.0006
Isotropic extinction parameter,
x (x 106)                     0.24(2)
Final R (based on F)               0.0398
Final Rw (based on F)              0.0395
Goodness of fit parameter          1.370
Max. shift/e.s.d.                  0.001
Max. residual electron
density e.A-3                0.91
;

_refine_ls_R_factor_gt           0.0395
#This value may have been taken from more than one field 

loop_
_atom_site_label
_atom_site_fract_x
_atom_site_fract_y
_atom_site_fract_z
Cd 0.4699(1) 0.23490(1) 0.0833
C3 0.9665(7) 0.4832(4) 0.0833
C1 0.8251(7) 0.4125(4) 0.0833
N1 0.7114(7) 0.3557(3) 0.0833
C2 1.0381(6) 0.5503(6) 0.0318(3)
N2 1.0989(6) 0.6076(6) -0.0084(3)
O1 0.2938(4) 0.0231(5) 0.0529(2)
O2 0.4817(5) 0.1222(4) 0.0013(2)
B1 0.3523(9) 0 0
C5 0.1718(7) -0.0749(9) 0.0705(4)
C6 0.5771(8) 0.1536(7) -0.0446(4)
O11 0.8228(9) 0.019(1) 0.0585(5)
C11 0.784(1) 0.082(1) 0.1039(8)
H1 0.1422(7) -0.0432(9) 0.1100(4)
H2 0.1760(7) -0.1651(9) 0.0799(4)
H3 0.0993(7) -0.0953(9) 0.0359(4)
H4 0.6663(8) 0.2486(7) -0.0351(4)
H5 0.5345(8) 0.1606(7) -0.0862(4)
H6 0.6033(8) 0.0756(7) -0.0474(4)



loop_
_geom_bond_atom_site_label_1
_geom_bond_atom_site_label_2
_geom_bond_distance
Cd N1 2.400(7)
Cd O1 2.356(4)
Cd O2 2.301(5)
Cd N2 2.396(6)
C3 C1 1.41(1)
C3 C2 1.410(7)
C1 N1 1.13(1)
C2 N2 1.133(9)
O1 B1 1.458(8)
O1 C5 1.345(7)
O2 B1 1.446(7)
O2 C6 1.42(1)
O11 C11 1.49(2)



loop_
_atom_site_aniso_label
_atom_site_aniso_U_11
_atom_site_aniso_U_22
_atom_site_aniso_U_33
_atom_site_aniso_U_12
_atom_site_aniso_U_13
_atom_site_aniso_U_23
Cd 0.0293(3) 0.0300(5) 0.0203(2) 0.0150(2) 0.0037(5) 0.0000
C3 0.030(2) 0.062(2) 0.026(2) 0.0311(9) -0.016(2) 0.0000
C1 0.032(2) 0.060(2) 0.025(2) 0.0301(9) -0.010(2) 0.0000
N1 0.036(2) 0.080(2) 0.047(2) 0.0398(9) 0.003(2) 0.0000
C2 0.031(2) 0.046(2) 0.027(2) 0.012(1) -0.007(2) -0.003(2)
N2 0.046(2) 0.060(2) 0.036(2) 0.016(1) 0.006(2) 0.010(2)
O1 0.043(1) 0.048(2) 0.046(2) 0.011(1) 0.012(1) -0.018(1)
O2 0.048(2) 0.038(1) 0.036(2) 0.013(1) 0.004(1) -0.012(1)
B1 0.044(2) 0.036(2) 0.029(2) 0.0178(9) -0.0004(8) -0.001(2)
C5 0.060(2) 0.097(2) 0.097(2) 0.007(2) 0.027(2) -0.039(2)
C6 0.076(2) 0.069(2) 0.078(2) -0.005(2) 0.036(2) -0.030(2)


loop_
_geom_angle_atom_site_label_1
_geom_angle_atom_site_label_2
_geom_angle_atom_site_label_3
_geom_angle
O2 Cd O1 56.4(2)
O2 Cd N2 98.5(2)
O2 Cd N1 87.1(1)
O2 Cd O2 174.2(2)
O2 Cd N2 120.0(1)
O2 Cd O1 129.0(2)
O1 Cd N2 81.3(2)
O1 Cd N1 138.0(1)
O1 Cd O2 130.0(2)
O1 Cd N2 125.3(1)
O1 Cd O1 84.1(2)
N2 Cd N1 84.9(2)
N2 Cd O2 80.9(2)
N2 Cd N2 140.6(2)
N2 Cd O1 106.4(2)
N1 Cd O2 87.1(1)
N1 Cd N2 89.2(1)
N1 Cd O1 137.9(2)
Cd O2 C6 134.5(4)
Cd O2 B1 103.9(3)
Cd O1 B1 101.0(3)
Cd O1 C5 140.7(5)
O1 B1 O2 98.6(3)
O1 B1 O1 113.1(9)
O1 B1 O2 116.6(3)
O2 B1 O2 114.3(7)
O2 B1 O1 116.6(3)
B1 O5 C5 118.1(5)
B1 O2 C6 121.3(5)
Cd N1 C1 180.0(5)
N1 C1 C3 180.0(5)
C1 C3 C2 120.3(4)
C3 C2 N2 177.6(7)
C2 N2 Cd 169.4(6)
C2 C3 C2 119.4(6)

#END 




