####################################################################### 
# 
# This file contains crystal structure data downloaded from the 
# Cambridge Structural Database (CSD) hosted by the Cambridge 
# Crystallographic Data Centre (CCDC).
# 
# Full information about CCDC data access policies and citation 
# guidelines are available at http://www.ccdc.cam.ac.uk/access/V1 
# 
# Audit and citation data items may have been added by the CCDC. 
# Please retain this information to preserve the provenance of 
# this file and to allow appropriate attribution of the data. 
# 
#######################################################################

data_cmpd_2
_audit_block_doi                 10.5517/cc8md7h
_database_code_depnum_ccdc_archive 'CCDC 256966'
loop_
_citation_id
_citation_doi
_citation_year
1 10.1038/46248 1999
_audit_update_record             
;
2004-11-26 deposited with the CCDC.	2024-07-12 downloaded from the CCDC.
;

_audit_creation_method           'manually at CCDC'

_chemical_name_systematic        
;  
Zn4O(BDC)3 desolvated
;
_chemical_name_common            ?
_chemical_formula_sum            'Zn4 Ol3 C24 Hl2'

_chemical_formula_weight         769.87

_symmetry_cell_setting           cubic
_symmetry_space_group_name_H-M   Fm-3m
_symmetry_Int_Tables_number      ?

loop_
_symmetry_equiv_pos_as_xyz
?
?
?

_cell_length_a                   25.8849(7)
_cell_length_b                   25.8849(7)
_cell_length_c                   25.8849(7)
_cell_angle_alpha                90
_cell_angle_beta                 90
_cell_angle_gamma                90
_cell_volume                     17343.6(8)
_cell_formula_units_Z            8

_exptl_crystal_density_diffrn    0.59

_diffrn_ambient_temperature      169

_diffrn_source                   ?

_diffrn_radiation_probe          x-ray
_diffrn_radiation_type           ?
_chemical_melting_point          ?


_exptl_crystal_description       cubic
_exptl_crystal_colour            colorless

_exptl_special_details           
;
The structure consists of Zn4O tetrahedra centered at 1/4 1/4 1/4 
(and equivalent positions) in the unit cell. Each edge of the tetrahedron 
is bridged by one end of a bdc ligand, which form the edges of a latticework 
of hollow cubes centered at 0 0 0, 1/2, 1/2, 1/2 and the faces of the cell.
The space group is Fm3m with the ligand lying on the diagonal mirror planes.

The final refinement of the cage showed several low angle data with values 
of Fobs > Fcalc, as expected for a model which did not account for the 
scattering of air in the open structure. The final refinement removed all 
reflections with a sin(O)/A < 0.15. This marginally improved the residuals 
and removed all large residual values of AF/,7(F).
The highest peaks (lowest valleyes) in the AF map are 0.25 and -.17 e- /Al, 
scattered randomly both near the molecular framework and in the void space. 
This contrasts with the relatively large values found in the non-evacuated 
sample. Clearly there is nothing in the hollows except freely moving air.

A colorless cubic crystal of Zn4Ol3C24Hl2 having approximate dimensions of 
0.12 x 0.15 x 0.23 mm was mounted on a glass fiber using Paratone N 
hydrocarbon oil. All measurements were made on a SMART" CCD area detector 
with graphite monochromated Mo-Kce radiation.

Cell constants and an orientation matrix , obtained from a least-squares 
refinement using the measured positions of 5451 reflections in the range 
3.00 < 20 < 45.00' corresponded to an F-centered cubic cell (laue class:m@m) 
with dimensions:

               a = 25.8849(7)
               V =17343.6(8) A3
For Z = 8 and F.W. = 769.87, the calculated density is 0.59 g/cm'. 
Based on the systematic absences of:
hkl: h+k,k+l,h+l i4 2n
packing considerations, a statistical analysis of intensity distribution, 
and the successful solution and refine-
ment of the structure, the space group was determined to be:

                 Fm3m (#225)

The data were collected at a temperature of -104 +- I'C. 
Frames corresponding to an arbitrary hemi-sphere of data were collected 
using w scans of 0.3' counted for a total of 10.0 seconds per frame.
;

_refine_ls_R_factor_gt           0.023
#This value may have been taken from more than one field 

loop_
_atom_site_label
_atom_site_fract_x
_atom_site_fract_y
_atom_site_fract_z
_atom_site_U_iso_or_equiv
_atom_site_occupancy
Znl 0.293490(9) 0.2065 0.2065 1.701(2) 0.06
O1 0.28070(5) 0.2193 0.13387(6) 2.96(2) 0.5
O2 0.2500 0.2500 0.2500 1.524(16) 0.04
Cl 0.2500 0.2500 0.11170(13) 2.50(4) 0.25
C2 0.2500 0.2500 0.05377(12) 2.63(4) 0.25
C3 0.28248(8) 0.2175 0.02645(10) 4.16(4) 0.5
Hl 0.3055 0.1945 0.0453 5.1510 0.5

loop_
_atom_site_aniso_label
_atom_site_aniso_U_11
_atom_site_aniso_U_22
_atom_site_aniso_U_33
_atom_site_aniso_U_23
_atom_site_aniso_U_13
_atom_site_aniso_U_12
#Atom	Ull	     U22      U33        U12       U13     U23 
Znl 0.02154(17) 0.0215 0.0215 -0.00002(13) 0.0000 0.0000
O1 0.0463(7) 0.0463 0.0200(9) 0.0148(8) -0.0013 0.0013(6)
02 0.0193(12) 0.0193 0.0193 0.0000 0.0000 0.0000
Cl 0.0359(13) 0.0359 0.023(2) -0.004(2) 0.0000 0.0000
C2 0.0390(13) 0.0390 0.022(2) 0.005(2) 0.0000 0.0000
C3 0.0651(13) 0.0651 0.0279(14) 0.0356(17) -0.0032 0.0032(9)

loop_
_geom_bond_atom_site_label_1
_geom_bond_atom_site_label_2
_geom_bond_distance
Znl 01 1.9378(16)
Zn1 01 1.9378(16)
Zn1 02 1.9498(4)
01 C1 1.262(2)
C1 C2 1.500(4)
C2 C3 1.383(3)
C2 C3 1.383(3)
C3 C3 1.369(5)


loop_
_geom_angle_atom_site_label_1
_geom_angle_atom_site_label_2
_geom_angle_atom_site_label_3
_geom_angle
01 Znl 01 107.60(5)
01 Zn1 02 111.28(5)
01 Zn1 02 111.28(5)
Zn1 01 C1 131.0(2)
Zn1 02 Zn1 109.4712(7)
Znl 02 Zn1 109.4712(7)
Zn1 02 Zn1 109.4712(15)
Znl 02 Zn1 109.4712(15)
Zn1 02 Zn1 109.4712(7)
Zn1 02 Znl 109.4712(7)
01 C1 01 125.9(3)
01 C1 C2 117.04(16)
01 C1 C2 117.04(16)
C1 C2 C3 120.74(16)
C1 C2 C3 120.74(16)
C3 C2 C3 118.5(3)
C2 C3 C3 120.74(16)

#END 
