
#######################################################################
#
#                 Cambridge Crystallographic Data Centre
#                                CCDC
#
#######################################################################
#
# If this CIF has been generated from an entry in the Cambridge
# Structural Database, then it will include bibliographic, chemical,
# crystal, experimental, refinement or atomic coordinate data resulting
# from the CCDC's data processing and validation procedures.
#
#######################################################################

data_CSD_CIF_SETNOU
_audit_creation_date 1991-01-07
_audit_creation_method CSD-ConQuest-V1
_database_code_CSD SETNOU
_database_code_depnum_ccdc_archive 'CCDC 1257846'
_database_code_depnum_ccdc_fiz 'CSD 54169'
_chemical_formula_sum 'C54 Bi3 F47'
_chemical_formula_moiety
;
C18 Bi1 F17,2(C18 Bi1 F15)
;
_journal_coden_Cambridge 48
_journal_volume 123
_journal_year 1990
_journal_page_first 761
_journal_name_full 'Chem.Ber. '
loop_
_publ_author_name
"A.Schmuck"
"D.Leopold"
"S.Wallenhauer"
"K.Seppelt"
_chemical_name_systematic
;
Difluoro-tris(pentafluorophenyl)-bismuth bis(tris(pentafluorophenyl)-bismuth)
;
_chemical_name_common
;
Teaching Subset: Fundamental Chemistry
;
_cell_volume   5892.890
_diffrn_ambient_temperature ?
_diffrn_special_details
;
The study was carried out at room temperature,in the range 283-303K

;
#These two values have been output from a single CSD field.
_refine_ls_R_factor_gt 0.034
_refine_ls_wR_factor_gt 0.034
_symmetry_cell_setting orthorhombic
_symmetry_space_group_name_H-M 'P c a n'
_symmetry_Int_Tables_number 60
loop_
_symmetry_equiv_pos_site_id
_symmetry_equiv_pos_as_xyz
1 x,y,z
2 1/2-x,1/2-y,1/2+z
3 x,-y,1/2-z
4 1/2-x,1/2+y,-z
5 -x,-y,-z
6 -1/2+x,-1/2+y,-1/2-z
7 -x,y,-1/2+z
8 -1/2+x,-1/2-y,z
_cell_length_a 13.153(3)
_cell_length_b 17.437(3)
_cell_length_c 25.694(4)
_cell_angle_alpha 90
_cell_angle_beta 90
_cell_angle_gamma 90
_cell_formula_units_Z 4
loop_
_atom_type_symbol
_atom_type_radius_bond
C 0.68
Bi 1.54
F 0.64
loop_
_atom_site_label
_atom_site_type_symbol
_atom_site_fract_x
_atom_site_fract_y
_atom_site_fract_z
Bi1 Bi 0.17370 0.02900 0.06410
F1 F 0.3344(7) -0.0289(7) -0.0425(4)
F2 F 0.3102(8) -0.0185(6) -0.1420(4)
F3 F 0.1442(8) 0.0521(7) -0.1847(4)
F4 F 0.0005(9) 0.1061(6) -0.1208(5)
F5 F 0.0218(7) 0.0965(6) -0.0165(4)
F6 F 0.4211(6) 0.0192(5) 0.1140(4)
F7 F 0.5533(8) -0.0967(6) 0.1171(5)
F8 F 0.5030(8) -0.2368(6) 0.0815(5)
F9 F 0.3167(9) -0.2586(6) 0.0371(5)
F10 F 0.1873(7) -0.1423(6) 0.0289(4)
F11 F 0.3996(8) 0.1055(7) 0.0157(4)
F12 F 0.4956(10) 0.2373(6) 0.0367(5)
F13 F 0.4136(9) 0.3408(7) 0.1006(7)
F14 F 0.2371(10) 0.3100(7) 0.1502(6)
F15 F 0.1388(8) 0.1771(6) 0.1320(5)
C1 C 0.1762(12) 0.0337(10) -0.0240(6)
C2 C 0.2489(12) 0.0059(9) -0.0598(7)
C3 C 0.2366(12) 0.0109(10) -0.1138(7)
C4 C 0.1545(13) 0.0448(10) -0.1325(8)
C5 C 0.0828(13) 0.0759(10) -0.1004(7)
C6 C 0.0961(13) 0.069(1) -0.0486(7)
C7 C 0.3006(11) -0.0564(9) 0.0680(7)
C8 C 0.3929(15) -0.0482(11) 0.0923(7)
C9 C 0.4609(14) -0.1073(11) 0.0962(7)
C10 C 0.4368(15) -0.1789(12) 0.0778(8)
C11 C 0.3435(15) -0.1895(12) 0.0556(8)
C12 C 0.2773(14) -0.1309(10) 0.0513(6)
C13 C 0.2669(12) 0.1368(9) 0.0732(7)
C14 C 0.3570(13) 0.1533(11) 0.0494(7)
C15 C 0.4071(15) 0.2213(12) 0.0569(8)
C16 C 0.3659(16) 0.2748(13) 0.0920(9)
C17 C 0.2757(16) 0.2603(15) 0.1145(8)
C18 C 0.2278(15) 0.1899(11) 0.1063(8)
Bi2 Bi 0.2139(1) 0.00000 0.25000
F16 F 0.2093(7) 0.0175(5) 0.1696(3)
F17 F 0.3789(8) 0.1193(5) 0.2090(4)
F18 F 0.5841(8) 0.1207(7) 0.2107(5)
F19 F 0.6857(10) 0.00000 0.25000
F20 F -0.0025(8) -0.0684(6) 0.2873(4)
F21 F -0.1020(9) -0.1989(7) 0.2632(5)
F22 F -0.0138(9) -0.3036(6) 0.2011(4)
F23 F 0.1798(9) -0.2807(6) 0.1664(5)
F24 F 0.2748(7) -0.1498(5) 0.1873(4)
C19 C 0.3800(14) 0.00000 0.25000
C20 C 0.4292(13) 0.0605(11) 0.2316(7)
C21 C 0.5338(15) 0.0629(12) 0.2313(7)
C22 C 0.5843(20) 0.00000 0.25000
C23 C 0.1350(13) -0.1088(10) 0.2361(6)
C24 C 0.0397(14) -0.1207(12) 0.2588(8)
C25 C -0.0096(14) -0.1897(11) 0.2449(8)
C26 C 0.1334(14) -0.2303(11) 0.1952(7)
C27 C 0.1822(14) -0.1618(9) 0.2061(6)
C28 C 0.0368(14) -0.2389(11) 0.2139(7)
F16B F 0.2093(7) -0.0175(5) 0.3304(3)
C23B C 0.1350(13) 0.1088(10) 0.2639(6)
C20B C 0.4292(13) -0.0605(11) 0.2684(7)
C21B C 0.5338(15) -0.0629(12) 0.2687(7)
C24B C 0.0397(14) 0.1207(12) 0.2412(8)
C27B C 0.1822(14) 0.1618(9) 0.2939(6)
F17B F 0.3789(8) -0.1193(5) 0.2910(4)
F18B F 0.5841(8) -0.1207(7) 0.2893(5)
F20B F -0.0025(8) 0.0684(6) 0.2127(4)
C25B C -0.0096(14) 0.1897(11) 0.2551(8)
F24B F 0.2748(7) 0.1498(5) 0.3127(4)
C26B C 0.1334(14) 0.2303(11) 0.3048(7)
F21B F -0.1020(9) 0.1989(7) 0.2368(5)
C28B C 0.0368(14) 0.2389(11) 0.2861(7)
F23B F 0.1798(9) 0.2807(6) 0.3336(5)
F22B F -0.0138(9) 0.3036(6) 0.2989(4)
#END
