
#######################################################################
#
#                 Cambridge Crystallographic Data Centre
#                                CCDC
#
#######################################################################
#
# If this CIF has been generated from an entry in the Cambridge
# Structural Database, then it will include bibliographic, chemical,
# crystal, experimental, refinement or atomic coordinate data resulting
# from the CCDC's data processing and validation procedures.
#
#######################################################################

data_CSD_CIF_SOCTOT31
_audit_creation_date 1993-08-06
_audit_creation_method CSD-ConQuest-V1
_database_code_CSD SOCTOT31
_database_code_depnum_ccdc_archive 'CCDC 1261002'
_database_code_depnum_ccdc_fiz 'CSD 56171'
_chemical_formula_sum 'C60'
_chemical_formula_moiety
;
C60
;
_journal_coden_Cambridge 179
_journal_volume 31
_journal_year 1992
_journal_page_first 640
_journal_name_full 'Angew.Chem.,Int.Ed. '
loop_
_publ_author_name
"H.-B.Burgi"
"E.Blanc"
"D.Schwarzenbach"
"Shengzhong Liu"
"Ying-jie Lu"
"M.M.Kappes"
"J.A.Ibers"
_chemical_name_systematic
;
C60Fullerene
;
_chemical_name_common
;
Teaching Subset: Fundamental Chemistry, Symmetry
;
_cell_volume   2774.690
_exptl_special_details
;
cubic Pa3 polymorph

;
_diffrn_ambient_temperature 110
_refine_special_details
;
Disordered over two orientations with occupancies of 0.786 and 0.214.
maximal model refinement
;
#These two values have been output from a single CSD field.
_refine_ls_R_factor_gt 0.031
_refine_ls_wR_factor_gt 0.031
_symmetry_cell_setting cubic
_symmetry_space_group_name_H-M 'P a 3'
_symmetry_Int_Tables_number 205
loop_
_symmetry_equiv_pos_site_id
_symmetry_equiv_pos_as_xyz
1 x,y,z
2 z,x,y
3 y,z,x
4 -x,1/2+y,1/2-z
5 -z,1/2+x,1/2-y
6 -y,1/2+z,1/2-x
7 1/2-x,-y,1/2+z
8 1/2-z,-x,1/2+y
9 1/2-y,-z,1/2+x
10 1/2+x,1/2-y,-z
11 1/2+z,1/2-x,-y
12 1/2+y,1/2-z,-x
13 -x,-y,-z
14 -z,-x,-y
15 -y,-z,-x
16 x,-1/2-y,-1/2+z
17 z,-1/2-x,-1/2+y
18 y,-1/2-z,-1/2+x
19 -1/2+x,y,-1/2-z
20 -1/2+z,x,-1/2-y
21 -1/2+y,z,-1/2-x
22 -1/2-x,-1/2+y,z
23 -1/2-z,-1/2+x,y
24 -1/2-y,-1/2+z,x
_cell_length_a 14.052(5)
_cell_length_b 14.052(5)
_cell_length_c 14.052(5)
_cell_angle_alpha 90
_cell_angle_beta 90
_cell_angle_gamma 90
_cell_formula_units_Z 4
loop_
_atom_type_symbol
_atom_type_radius_bond
C 0.68
loop_
_atom_site_label
_atom_site_type_symbol
_atom_site_fract_x
_atom_site_fract_y
_atom_site_fract_z
C1 C -0.0373(4) 0.2219(4) 0.1140(2)
C2 C -0.0636(2) 0.2425(1) 0.0199(2)
C3 C 0.0570(2) 0.2021(3) 0.1389(2)
C4 C -0.0966(2) 0.1587(2) 0.1701(2)
C5 C 0.0062(1) 0.2459(1) -0.0543(2)
C6 C -0.1506(2) 0.2006(2) -0.0198(2)
C7 C 0.1256(2) 0.2089(3) 0.0637(4)
C8 C -0.0328(3) 0.1020(2) 0.2285(2)
C9 C -0.0349(2) 0.2055(2) -0.1409(2)
C10 C -0.1782(1) 0.1192(1) 0.1319(2)
C11? C 0.237(1) -0.022(1) 0.0760(9)
C12? C 0.2014(5) -0.1081(6) 0.1029(7)
C13? C 0.064(2) 0.142(1) 0.196(1)
C14? C -0.0010(8) -0.0193(7) 0.2506(5)
C15? C -0.1148(6) 0.1814(6) 0.1313(6)
C16? C 0.1757(8) -0.0324(8) -0.1740(7)
C17? C 0.123(1) 0.073(1) 0.205(1)
C18? C 0.095(1) -0.038(2) 0.228(2)
C19? C -0.1873(8) 0.1539(8) 0.0633(8)
C20? C 0.2260(5) -0.0645(6) -0.0900(5)
C7A C 0.0637(2) 0.1256(3) 0.2089(4)
C8B C 0.1020(3) 0.2285(2) -0.0328(2)
C9N C -0.2055(2) 0.1409(2) 0.0349(2)
C10M C -0.1319(1) 0.1782(1) -0.1192(2)
C3B C 0.2021(2) 0.1389(3) 0.0570(2)
C5A C -0.0543(1) 0.0062(1) 0.2459(2)
C6M C 0.0198(2) 0.1506(2) -0.2006(2)
C6N C -0.2006(2) 0.0198(2) 0.1506(2)
C3A C 0.1389(2) 0.0570(3) 0.2021(2)
C4B C 0.1587(2) 0.1701(2) -0.0966(2)
C5N C -0.2459(1) 0.0543(1) -0.0062(2)
C4M C -0.1701(2) 0.0966(2) -0.1587(2)
C1B C 0.2219(4) 0.1140(4) -0.0373(2)
C7B C 0.2089(2) 0.0637(3) 0.1256(4)
C2A C 0.0199(2) -0.0636(1) 0.2425(2)
C9A C -0.1409(2) -0.0349(2) 0.2055(2)
C2M C -0.0199(2) 0.0636(1) -0.2425(2)
C10B C 0.1192(1) 0.1319(1) -0.1782(2)
C2N C -0.2425(2) -0.0199(1) 0.0636(2)
C1A C 0.1140(4) -0.0373(4) 0.2219(2)
C8M C -0.2285(3) 0.0328(2) -0.1020(2)
C1M C -0.1140(4) 0.0373(4) -0.2219(2)
C2B C 0.2425(2) 0.0199(1) -0.0636(2)
C8A C 0.2285(3) -0.0328(2) 0.1020(2)
C6A C -0.0198(2) -0.1506(2) 0.2006(2)
C10N C -0.1192(1) -0.1319(1) 0.1782(2)
C5M C 0.0543(1) -0.0062(1) -0.2459(2)
C9M C 0.1409(2) 0.0349(2) -0.2055(2)
C1N C -0.2219(4) -0.1140(4) 0.0373(2)
C4A C 0.1701(2) -0.0966(2) 0.1587(2)
C7N C -0.2089(2) -0.0637(3) -0.1256(4)
C3M C -0.1389(2) -0.0570(3) -0.2021(2)
C5B C 0.2459(1) -0.0543(1) 0.0062(2)
C6B C 0.2006(2) -0.0198(2) -0.1506(2)
C9L C 0.0349(2) -0.2055(2) 0.1409(2)
C4N C -0.1587(2) -0.1701(2) 0.0966(2)
C8L C 0.0328(3) -0.1020(2) -0.2285(2)
C3N C -0.2021(2) -0.1389(3) -0.0570(2)
C10A C 0.1319(1) -0.1782(1) 0.1192(2)
C7M C -0.0637(2) -0.1256(3) -0.2089(4)
C9B C 0.2055(2) -0.1409(2) -0.0349(2)
C10L C 0.1782(1) -0.1192(1) -0.1319(2)
C5L C -0.0062(1) -0.2459(1) 0.0543(2)
C8N C -0.1020(3) -0.2285(2) 0.0328(2)
C4L C 0.0966(2) -0.1587(2) -0.1701(2)
C7L C -0.1256(2) -0.2089(3) -0.0637(4)
C6L C 0.1506(2) -0.2006(2) 0.0198(2)
C3L C -0.0570(2) -0.2021(3) -0.1389(2)
C2L C 0.0636(2) -0.2425(1) -0.0199(2)
C1L C 0.0373(4) -0.2219(4) -0.1140(2)
#END
