####################################################################### 
# 
# This file contains crystal structure data downloaded from the 
# Cambridge Structural Database (CSD) hosted by the Cambridge 
# Crystallographic Data Centre (CCDC).
# 
# Full information about CCDC data access policies and citation 
# guidelines are available at http://www.ccdc.cam.ac.uk/access/V1 
# 
# Audit and citation data items may have been added by the CCDC. 
# Please retain this information to preserve the provenance of 
# this file and to allow appropriate attribution of the data. 
# 
#######################################################################

data_cmpd_2
_audit_block_doi                 10.5517/ccxskrz
_database_code_depnum_ccdc_archive 'CCDC 857762'
_audit_update_record             
;
2011-12-12 deposited with the CCDC.	2024-07-13 downloaded from the CCDC.
;

_audit_creation_method           'manually at CCDC'

_chemical_name_systematic        
;
((Er2(L-Glu)2(H2O)8)(ClO4)4(H2O)3)2
;
_chemical_name_common            ?

_chemical_formula_weight         ?
_symmetry_cell_setting           monoclinic
_symmetry_space_group_name_H-M   P21
_symmetry_Int_Tables_number      ?

loop_
_symmetry_equiv_pos_as_xyz
?
?
?

_cell_length_a                   19.987(3)
_cell_length_b                   16.505(3)
_cell_length_c                   11.040(2)
_cell_angle_alpha                90
_cell_angle_beta                 104.69(1)
_cell_angle_gamma                90
_cell_volume                     3538(1)
_cell_formula_units_Z            2

_exptl_crystal_density_diffrn    2.29

_diffrn_source                   ?

_diffrn_radiation_probe          x-ray
_diffrn_radiation_type           ?
_chemical_melting_point          ?

_exptl_special_details           
;

;

_refine_special_details          
;

;

_refine_ls_R_factor_gt           0.045
#This value may have been taken from more than one field

loop_
_atom_site_label
_atom_site_fract_x
_atom_site_fract_y
_atom_site_fract_z
Er1 0.9013,1 1.0000 0.6689,1
Er2 1.0975,1 0.9952,1 0.8222,1
Er3 0.5903,1 0.5124,1 0.8193,1
Er4 0.3938,1 0.5224,1 0.6747,1
O1 0.9522,5 0.8901,7 0.5943,10
O2 1.0670,5 0.8837,5 0.6817,8
O3 1.0680,5 0.6106,7 0.4617,9
O4 0.9841,5 0.5407,6 0.3540,8
N1 1.0929,6 0.7644,9 0.5472,8
C1 1.0130,6 0.8608,8 0.6090,11
C2 1.0169,7 0.7864,9 0.5333,11
C3 0.9782,7 0.7112,10 0.5658,12
C4 0.9520,9 0.6522,12 0.4629,15
C5 1.0046,7 0.6012,1 0.4250,13
O5 0.9299,5 1.1117,6 0.7979,9
O6 1.0448,5 1.1142,8 0.8800,10
O7 0.9320,5 1.3742 1.0593,9
O8 0.10164,5 1.5522,6 0.11592,8
N2 0.9015,6 1.2392,11 0.9087,13
C6 0.9863,7 1.1409,10 0.8595,13
C7 0.9790,7 1.2258,10 0.9173,12
C8 1.0224,8 1.2386,11 1.0528,14
C9 1.0469,8 1.3246,11 1.0812,14
C10 0.9956,7 1.3845,8 1.0996,11
O9 0.5526,4 0.4049,7 0.6792,8
O10 0.4346,5 0.4053,7 0.6110,9
O11 0.5718,5 0.1483,6 0.4403,9
O12 0.4950,5 0.624,6 0.3504,8
N3 0.5721,7 0.3099,8 0.5018,13
C11 0.4988,7 0.3810,10 0.6109,13
C12 0.4988,7 0.3194,9 0.5134,13
C13 0.4729,8 0.2338,11 0.5540,14
C14 0.4530,9 0.1731,12 0.4519,15
C15 0.5097,7 0.1259,9 0.4119,12
O13 0.5404,5 0.6354,7 0.8797,10
O14 0.4258,5 0.6255,6 0.8131,9
O15 0.4373,5 0.8930,7 0.10684,10
O16 0.5220,5 0.9725,6 0.11532,7
N4 0.4012,6 0.7503,8 0.9440,10
C16 0.4821,8 0.6603,10 0.8713,13
C17 0.4725,7 0.7433,10 0.9305,13
C18 0.5242,8 0.7546,11 1.0608,15
C19 0.5506,7 0.8434,10 1.0762,13
C20 0.5002,7 0.9057,9 0.10992,12
Ow1 0.7986,5 0.10756,7 0.6165,9
Ow2 0.8454,5 0.9932,7 0.8422,10
Ow3 0.8507,5 0.9809,6 0.4417,9
Ow4 0.8250,5 0.8875,7 0.6442,10
Ow5 1.1752,6 1.1085,7 0.8504,11
Ow6 1.1368,6 1.0110,9 1.0416,9
Ow7 1.1616,5 0.9997,8 0.6584,9
Ow8 1.1976,5 0.9071,7 0.8833,10
Ow9 0.6990,6 0.4443,9 0.8717,12
Ow10 0.6318,6 0.5276,8 1.0399,9
Ow11 0.6669,5 0.6245,7 0.8443,11
Ow12 0.6437,5 0.5150,7 0.6423,10
Ow13 0.3025,6 0.4270,7 0.6065,10
Ow14 0.3611,6 0.6152,7 0.4482,9
Ow15 0.2968,4 0.6131,6 0.6157,9
Ow16 0.3304,5 0.5050,8 0.8312,9
Ow17 0.1938,7 0.1617,9 0.1519,12
Ow18 0.3045,8 0.1737,10 0.8461,15
Ow19 0.6303,7 0.0911,8 0.9542,10
Ow20 0.9349,11 0.521,14 0.590,13
Ow21 0.8486,9 1.27047,17 0.6552,12
Ow22 0.7822,11 0.4410,18 0.6834,21


loop_
_geom_bond_atom_site_label_1
_geom_bond_atom_site_label_2
_geom_bond_distance
Er1 Er2 3.885,1
Er4 O12a 2.396,10
Er3 Er4 3.877,1
Er1 O5 2.317,9
O10 C1 1.282,17
Er3 O13 2.424,11
Er1 Ow2 2.436,12
O3 C5 1.246,17
Er3 Ow10 2.394,9
Er1 O4 0.2377,11
O4 C5 1.276,18
Er3 Ow12 2.437,12
Er1 O4a 2.456,10
O4 Er2a 2.346,8
Er3 O15a 2.461,11
Er2 O2 2.391,9
C1 C2 1.520,18
Er4 O10 2.289,11
Er2 Ow5 2.42.,12
C3 C4 1.496,22
Er4 Ow13 2.394,12
Er2 Ow7 2.452,11
Cl1 O17 1.496,15
Er4 Ow15 2.414,9
Er2 O4a 2.345,8
Cl1 O19 1.410,21
Er4 O11a 2.610,10
Er2 O8a 2.440,10
Er1 O1 2.323,12
Er4 O16a 2.369,8
Er2 O9 2.356,10
Er1 Ow1 2.355,10
O2 C1 1.242,14
Er3 Ow9 2.392,12
Er1 Ow3 2.493,10
O3 Er1a 2.491,11
Er2 Ow11 2.375,11
Er1 O3a 0.2491,11
O4 Er1a 2.456,10
Er3 O12a 2.362,9
Er1 O8a 2.334,8
N1 C2 1.529,18
Er3 O16a 2.427,10
Er2 O6 2.385,11
C2 C3 1.526,21
Er4 O14 2.274,9
Er2 Ow8 2.377,9
C4 C5 1.481,24
Er4 Ow14 2.433,10
Er2 Ow8 2.436,11
Cl1 O18 1.41.,18
Er4 Ow16 2.390,11
Er2 O1b 2.532,11
Cl1 O20 1.380,20


