
#######################################################################
#
#                 Cambridge Crystallographic Data Centre
#                                CCDC
#
#######################################################################
#
# If this CIF has been generated from an entry in the Cambridge
# Structural Database, then it will include bibliographic, chemical,
# crystal, experimental, refinement or atomic coordinate data resulting
# from the CCDC's data processing and validation procedures.
#
#######################################################################

data_CSD_CIF_TAHJAP01
_audit_creation_date 2011-03-15
_audit_creation_method CSD-ConQuest-V1
_database_code_CSD TAHJAP01
_database_code_depnum_ccdc_archive 'CCDC 800264; CCDC 421490'
_chemical_formula_sum 'C2 K2 Pd1'
_chemical_formula_moiety
;
(C2 K2 Pd1)n
;
_journal_coden_Cambridge 29
_journal_volume 636
_journal_year 2010
_journal_page_first 1834
_journal_name_full 'Z.Anorg.Allg.Chem. '
loop_
_publ_author_name
"H.Billetter"
"T.Wallraff"
"U.Schwarz"
"R.I.Smith"
"U.Ruschewitz"
_chemical_name_systematic
;
catena-((\m~8~-acetylido)-palladium-di-potassium)
;
_chemical_name_common
;
Teaching Subset: Fundamental Chemistry
;
_cell_volume    118.149
_exptl_special_details
;
powder data

;
_diffrn_ambient_temperature 4.5
_diffrn_radiation_probe 'neutron radiation'
#These two values have been output from a single CSD field.
_refine_ls_R_factor_gt 0.03
_refine_ls_wR_factor_gt 0.03
_symmetry_cell_setting hexagonal
_symmetry_space_group_name_H-M 'P -3 m 1'
_symmetry_Int_Tables_number 164
loop_
_symmetry_equiv_pos_site_id
_symmetry_equiv_pos_as_xyz
1 x,y,z
2 -y,x-y,z
3 -x+y,-x,z
4 x-y,-y,-z
5 y,x,-z
6 -x,-x+y,-z
7 -x,-y,-z
8 y,-x+y,-z
9 x-y,x,-z
10 -x+y,y,z
11 -y,-x,z
12 x,x-y,z
_cell_length_a 5.07646(5)
_cell_length_b 5.07646(5)
_cell_length_c 5.29391(8)
_cell_angle_alpha 90
_cell_angle_beta 90
_cell_angle_gamma 120
_cell_formula_units_Z 1
loop_
_atom_type_symbol
_atom_type_radius_bond
C 0.82
K 2.13
Pd 1.39
loop_
_atom_site_label
_atom_site_type_symbol
_atom_site_fract_x
_atom_site_fract_y
_atom_site_fract_z
K1 K -0.33340 -0.66670 -0.27872(17)
Pd1 Pd 0.00000 0.00000 0.00000
C1 C 0.00000 0.00000 -0.38135(7)
K1C K 0.33330 0.66670 -0.72128(17)
K1C* K 0.33330 -0.33330 0.27872(17)
K1C** K -0.66670 -0.33330 -0.72128(17)
K1C*** K 0.33330 -0.33330 -0.72128(17)
K1C**** K -0.66670 -1.33330 -0.72128(17)
K1C***** K -0.66670 -0.33330 0.27872(17)
K1C****** K 0.33330 0.66670 0.27872(17)
K1* K -0.33340 0.33330 -0.27872(17)
K1** K 0.66660 0.33330 -0.27872(17)
K1*** K 0.66660 1.33330 -0.27872(17)
Pd1* Pd 0.00000 -1.00000 0.00000
Pd1** Pd -1.00000 -1.00000 0.00000
Pd1*** Pd 0.00000 0.00000 -1.00000
Pd1**** Pd 1.00000 1.00000 -1.00000
Pd1***** Pd 0.00000 1.00000 -1.00000
C1C C 0.00000 0.00000 -0.61865(7)
C1* C -1.00000 -1.00000 -0.38135(7)
C1** C 0.00000 -1.00000 -0.38135(7)
C1C* C -1.00000 -1.00000 -0.61865(7)
C1C** C 0.00000 -1.00000 -0.61865(7)
C1C*** C 0.00000 0.00000 0.38135(7)
C1C**** C 0.00000 1.00000 -0.61865(7)
C1C***** C 1.00000 1.00000 -0.61865(7)
C1*** C 0.00000 1.00000 -0.38135(7)
C1**** C 1.00000 1.00000 -0.38135(7)
#END
