####################################################################### 
# 
# This file contains crystal structure data downloaded from the 
# Cambridge Structural Database (CSD) hosted by the Cambridge 
# Crystallographic Data Centre (CCDC).
# 
# Full information about CCDC data access policies and citation 
# guidelines are available at http://www.ccdc.cam.ac.uk/access/V1 
# 
# Audit and citation data items may have been added by the CCDC. 
# Please retain this information to preserve the provenance of 
# this file and to allow appropriate attribution of the data. 
# 
#######################################################################

data_cmpd_D-POST-1
_audit_block_doi                 10.5517/cc74cf4
_database_code_depnum_ccdc_archive 'CCDC 212735'
loop_
_citation_id
_citation_doi
_citation_year
1 10.1038/35010088 2000
_audit_update_record             
;
2003-06-13 deposited with the CCDC.	2024-07-13 downloaded from the CCDC.
;

_audit_creation_method           'manually at CCDC'

_chemical_name_systematic        
;
D-POST-1
;
_chemical_name_common            ?
_chemical_formula_sum            C72H98N12O40Zn3
_chemical_formula_moiety         ?

_chemical_formula_weight         1967.75

_symmetry_cell_setting           hexagonal
_symmetry_space_group_name_H-M   P321
_symmetry_Int_Tables_number      ?

loop_
_symmetry_equiv_pos_as_xyz
?
?
?

_cell_length_a                   20.9415(6)
_cell_length_b                   20.9415(6)
_cell_length_c                   15.4720(6)
_cell_angle_alpha                90.0
_cell_angle_beta                 90.0
_cell_angle_gamma                120.
_cell_volume                     5876.1(3)
_cell_formula_units_Z            2

_exptl_crystal_density_diffrn    1.112

_diffrn_ambient_temperature      188

_diffrn_source                   ?

_diffrn_radiation_probe          x-ray
_diffrn_radiation_type           ?
_chemical_melting_point          ?


_exptl_crystal_description       ?
_exptl_crystal_colour            ' '

_exptl_special_details           
;
Wavelength 	0.71073
Absorption coefficient	0.681 mm-1
F(000)	2048
Crystal size	0.15 x 0.5 x 0.5 mm3
;


_diffrn_special_details          
;
? range for data collection	1.73 to 24.16%.
Index ranges	-23<=h<=23, -16<=k<=23, -17<=l<=17
Reflections collected	23489
Independent reflections	6109 [R(int) = 0.0748]
Completeness to ? = 24.16%	98.8 %
Absorption correction	Semi empirical (SADABS)
;

_refine_special_details          
;
Refinement method	Full-matrix least-squares on F2
Data / restraints / parameters	6109 / 0 / 387
Goodness-of-fit on F2	1.092
Final R indices [I>2?(I)]	R1 = 0.1017, wR2 = 0.2720
R indices (all data)	R1 = 0.1258, wR2 = 0.2967
Absolute structure parameter	0.05(4)
Largest diff. peak and hole	0.791 and -0.475 e.A-3
;

_refine_ls_R_factor_gt           0.107
#This value may have been taken from more than one field

loop_
_atom_site_label
_atom_site_fract_x
_atom_site_fract_y
_atom_site_fract_z
_atom_site_U_iso_or_equiv
Zn 0.4179(1) 0.6460(1) 0.8903(1) 0.076(1)
O(1) 0.3333 0.6667 0.8800(14) 0.111(6)
O(2) 0.4639(4) 0.7080(4) 0.7746(7) 0.100(3)
O(3) 0.4480(4) 0.8033(4) 0.8060(6) 0.093(3)
O(4) 0.5152(8) 0.7545(9) 0.6230(9) 0.145(5)
O(5) 0.4722(7) 0.8162(6) 0.5347(8) 0.126(4)
O(6) 0.5117(6) 0.9500(6) 0.6192(9) 0.136(4)
O(7) 0.3720(4) 0.5849(5) 1.0056(7) 0.103(3)
O(8) 0.2517(4) 0.5145(3) 0.9695(6) 0.083(2)
O(9) 0.3533(4) 0.5211(4) 1.1544(6) 0.085(2)
O(10) 0.2555(4) 0.4967(5) 1.2392(7) 0.096(3)
O(11) 0.1314(4) 0.3850(4) 1.1388(7) 0.092(3)
O(1W) -0.2470(20) 0.1340(20) 1.1190(20) 0.240(20)
O(2W) 0.0000 0.6549(19) 1.0000 0.510(60)
O(3W) 0.6234(18) 1.0000 0.5000 0.290(20)
O(4W) 0.2595(13) 1.1328(12) 0.6850(20) 0.280(20)
N(1) 0.3911(7) 0.8888(5) 0.6591(9) 0.107(4)
N(2) 0.3307(11) 1.0515(8) 0.6716(17) 0.164(8)
N(3) 0.1143(4) 0.4844(4) 1.1203(7) 0.077(3)
N(4) -0.1149(4) 0.3910(4) 1.1061(7) 0.074(3)
C(1) 0.4686(6) 0.7686(6) 0.7580(10) 0.081(3)
C(2) 0.5018(9) 0.7998(10) 0.6788(12) 0.115(5)
C(4) 0.5166(11) 0.7762(11) 0.5340(16) 0.135(6)
C(3) 0.4499(7) 0.8173(7) 0.6198(10) 0.096(4)
C(5) 0.5893(18) 0.8310(20) 0.5010(20) 0.290(20)
C(6) 0.4727(14) 0.7058(13) 0.4759(17) 0.190(11)
C(7) 0.4561(12) 0.8954(9) 0.6311(11) 0.120(6)
C(8) 0.3752(8) 0.9444(7) 0.6614(11) 0.101(4)
C(9) 0.4291(12) 1.0199(8) 0.6441(15) 0.147(8)
C(10) 0.3945(18) 1.0704(11) 0.6567(19) 0.171(10)
C(11) 0.2793(15) 0.9822(15) 0.6841(19) 0.180(11)
C(12) 0.3013(11) 0.9247(9) 0.6829(14) 0.132(7)
C(13) 0.3055(6) 0.5334(6) 1.0163(8) 0.070(3)
C(14) 0.2915(6) 0.4947(6) 1.0951(10) 0.087(4)
C(16) 0.3272(6) 0.5020(7) 1.2404(10) 0.088(4)
C(15) 0.2373(5) 0.5067(6) 1.1529(8) 0.075(3)
C(17) 0.3776(8) 0.5622(9) 1.2986(12) 0.133(6)
C(18) 0.3210(13) 0.4291(12) 1.2641(14) 0.152(7)
C(19) 0.1548(6) 0.4515(6) 1.1374(9) 0.084(3)
C(20) 0.0379(5) 0.4496(5) 1.1141(8) 0.075(3)
C(21) -0.0079(6) 0.3748(7) 1.1126(8) 0.081(3)
C(22) -0.0856(5) 0.3467(6) 1.1068(9) 0.083(4)
C(23) -0.0663(6) 0.4636(6) 1.1104(9) 0.090(4)
C(24) 0.0087(6) 0.4949(7) 1.1100(10) 0.096(4)


loop_
_geom_bond_atom_site_label_1
_geom_bond_atom_site_label_2
_geom_bond_distance
Zn O(1) 2.029(2)
Zn N(4) 2.095(7)
Zn O(8) 2.109(7)
Zn O(7) 2.126(11)
Zn O(2) 2.136(11)
Zn O(3) 2.171(7)
O(2) C(1) 1.250(14)
O(3) C(1) 1.257(12)
O(4) C(2) 1.410(18)
O(4) C(4) 1.45(2)
O(5) C(3) 1.401(17)
O(5) C(4) 1.53(2)
O(6) C(7) 1.169(19)
O(7) C(13) 1.276(13)
O(8) C(13) 1.226(12)
O(9) C(16) 1.418(16)
O(9) C(14) 1.452(14)
O(10) C(15) 1.432(15)
O(10) C(16) 1.449(13)
O(11) C(19) 1.225(13)
N(1) C(7) 1.37(2)
N(1) C(8) 1.361(17)
N(2) C(10) 1.21(3)
N(2) C(11) 1.32(3)
N(3) C(19) 1.358(14)
N(3) C(20) 1.390(12)
N(4) C(23) 1.344(13)
N(4) C(22) 1.343(13)
C(1) C(2) 1.40(2)
C(2) C(3) 1.60(2)
C(4) C(5) 1.46(3)
C(4) C(6) 1.57(3)
C(3) C(7) 1.58(2)
C(8) C(12) 1.43(2)
C(8) C(9) 1.44(2)
C(9) C(10) 1.56(3)
C(11) C(12) 1.49(3)
C(13) C(14) 1.412(17)
C(14) C(15) 1.561(16)
C(16) C(17) 1.477(19)
C(16) C(18) 1.51(2)
C(15) C(19) 1.544(15)
C(20) C(24) 1.366(17)
C(20) C(21) 1.367(16)
C(21) C(22) 1.430(14)
C(23) C(24) 1.365(15)

loop_
_atom_site_aniso_label
_atom_site_aniso_U_11
_atom_site_aniso_U_22
_atom_site_aniso_U_33
_atom_site_aniso_U_23
_atom_site_aniso_U_13
_atom_site_aniso_U_12
# U11 U22 U33 U23 U13 U12
Zn 0.034(1) 0.046(1) 0.157(1) -0.028(1) -0.017(1) 0.027(1)
O(1) 0.034(4) 0.034(4) 0.270(20) 0.000 0.000 0.017(2)
O(2) 0.064(5) 0.064(5) 0.185(9) -0.041(5) -0.018(5) 0.043(4)
O(3) 0.063(4) 0.044(4) 0.170(8) 0.004(4) 0.038(5) 0.024(3)
O(4) 0.146(11) 0.183(14) 0.165(10) 0.004(10) 0.034(9) 0.127(11)
O(5) 0.132(9) 0.089(7) 0.163(10) -0.005(6) 0.004(8) 0.059(7)
O(6) 0.100(8) 0.067(6) 0.204(12) 0.019(7) 0.031(8) 0.012(6)
O(7) 0.050(5) 0.090(6) 0.190(9) -0.062(6) -0.048(5) 0.051(5)
O(8) 0.045(4) 0.032(3) 0.167(7) 0.004(4) -0.035(4) 0.015(3)
O(9) 0.041(4) 0.078(5) 0.133(7) 0.017(5) -0.001(4) 0.028(4)
O(10) 0.045(4) 0.084(6) 0.151(8) 0.015(5) 0.006(5) 0.027(4)
O(11) 0.039(4) 0.037(4) 0.201(8) 0.008(4) 0.002(5) 0.019(3)
O(1W) 0.350(50) 0.250(40) 0.260(40) -0.020(30) -0.050(30) 0.260(40)
O(2W) 0.170(40) 0.130(30) 1.230(150) 0.060(30) 0.120(60) 0.080(20)
O(3W) 0.300(40) 0.190(30) 0.350(40) 0.110(30) 0.054(13) 0.093(14)
O(4W) 0.190(20) 0.137(19) 0.560(50) -0.080(20) -0.120(30) 0.123(18)
N(1) 0.084(8) 0.050(5) 0.185(11) 0.025(6) 0.029(8) 0.032(5)
N(2) 0.122(13) 0.055(8) 0.310(30) -0.017(11) -0.010(16) 0.040(9)
N(3) 0.030(4) 0.035(4) 0.157(8) 0.007(5) -0.004(4) 0.010(3)
N(4) 0.025(3) 0.046(5) 0.151(8) -0.037(5) -0.014(4) 0.016(3)
C(1) 0.048(6) 0.059(7) 0.141(11) -0.017(7) 0.017(6) 0.030(5)
C(2) 0.078(9) 0.106(11) 0.169(15) -0.040(11) -0.005(10) 0.054(9)
C(4) 0.113(13) 0.101(13) 0.200(18) 0.030(13) 0.015(13) 0.061(11)
C(3) 0.086(8) 0.052(7) 0.142(12) 0.014(7) 0.033(8) 0.029(6)
C(5) 0.240(30) 0.440(60) 0.330(40) 0.230(40) 0.170(30) 0.280(40)
C(6) 0.190(20) 0.143(18) 0.270(30) -0.070(19) 0.010(20) 0.107(18)
C(7) 0.120(14) 0.073(9) 0.141(13) 0.005(9) 0.023(11) 0.029(10)
C(8) 0.076(8) 0.057(7) 0.173(14) 0.007(8) -0.006(9) 0.035(6)
C(9) 0.139(15) 0.047(7) 0.250(20) 0.022(10) -0.028(14) 0.042(9)
C(10) 0.170(20) 0.066(11) 0.250(30) 0.007(14) -0.010(20) 0.045(14)
C(11) 0.160(20) 0.160(20) 0.250(30) -0.090(20) -0.070(20) 0.110(20)
C(12) 0.129(15) 0.070(9) 0.200(20) -0.006(10) -0.012(13) 0.053(10)
C(13) 0.057(7) 0.056(6) 0.114(9) -0.008(6) -0.011(6) 0.042(5)
C(14) 0.045(6) 0.056(6) 0.166(12) 0.003(7) 0.003(6) 0.031(5)
C(16) 0.038(5) 0.084(8) 0.136(11) 0.006(8) -0.011(6) 0.026(6)
C(15) 0.039(5) 0.056(6) 0.130(10) 0.002(6) 0.001(5) 0.024(4)
C(17) 0.053(8) 0.111(12) 0.198(16) -0.030(11) -0.021(9) 0.014(8)
C(18) 0.166(19) 0.133(16) 0.178(17) 0.034(13) 0.001(14) 0.090(15)
C(19) 0.048(6) 0.057(7) 0.149(10) -0.004(6) -0.007(6) 0.029(5)
C(20) 0.038(5) 0.042(5) 0.132(9) -0.024(6) -0.015(5) 0.009(4)
C(21) 0.040(5) 0.085(8) 0.141(10) 0.005(7) 0.006(6) 0.047(6)
C(22) 0.030(5) 0.046(6) 0.167(12) -0.017(6) -0.004(6) 0.016(4)
C(23) 0.043(5) 0.046(6) 0.181(12) -0.040(7) -0.017(6) 0.021(5)
C(24) 0.034(5) 0.056(6) 0.186(13) -0.035(7) -0.009(6) 0.013(5)


loop_
_geom_angle_atom_site_label_1
_geom_angle_atom_site_label_2
_geom_angle_atom_site_label_3
_geom_angle
O(1) Zn N(4) 171.5(3)
O(1) Zn O(8) 96.6(4)
N(4) Zn O(8) 91.6(3)
O(1) Zn O(7) 90.8(6)
N(4) Zn O(7) 87.3(3)
O(8) Zn O(7) 87.4(3)
O(1) Zn O(2) 89.0(6)
N(41 Zn O(2) 92.9(4)
O(8) Zn O(2) 92.4(3)
O(7) Zn O(2) 179.7(3)
O(1) Zn O(3) 87.2(4)
N(4) Zn O(3) 84.7(3)
O(8) Zn O(3) 175.9(3)
O(7) Zn O(3) 94.1(3)
O(2) Zn O(3) 86.1(3)
Zn O(1) Zn 119.40(17)
Zn O(1) Zn 119.40(17)
Zn O(1) Zn 119.40(17)
C(1) O(2) Zn 124.9(8)
C(1) O(3) Zn 134.5(7)
C(2) O(4) C(4) 110.6(15)
C(3) O(5) C(4) 108.4(14)
C(13) O(7) Zn 126.2(8)
C(13) O(8) Zn 127.8(6)
C(16) O(9) C(14) 109.9(8)
C(15) O(10) C(16) 110.0(10)
C(7) N(1) C(8) 125.4(13)
C(10) N(2) C(11) 123.2(19)
C(19) N(3) C(20) 126.3(9)
C(23) N(4) C(22) 115.6(7)
C(23) N(4) Zn 119.6(6)
C(22) N(4) Zn 124.6(6)
O(2) C(1) O(3) 126.2(13)
O(2) C(1) C(2) 115.1(11)
O(3) C(1) C(2) 118.7(12)
C(1) C(2) O(4) 116.1(15)
C(1) C(2) C(3) 111.8(12)
O(4) C(2) C(3) 101.1(12)
C(5) C(4) O(4) 115(2)
C(5) C(4) O(5) 104.8(16)
O(4) C(4) O(5) 103.9(16)
C(5) C(4) C(6) 115(2)
O(4) C(4) C(6) 109.9(17)
O(5) C(4) C(6) 106.7(15)
O(5) C(3) C(7) 105.4(11)
O(5) C(3) C(2) 105.2(12)
C(7) C(3) C(2) 117.4(14)
O(6) C(7) N(1) 127.0(17)
O(6) C(7) C(3) 121.4(19)
N(1) C(7) C(3) 111.6(13)
N(1) C(8) C(12) 116.9(12)
N(1) C(8) C(9) 123.0(15)
C(12) C(8) C(9) 120.1(14)
C(8) C(9) C(10) 110.4(19)
N(2) C(10) C(9) 127.7(19)
N(2) C(11) C(12) 118(2)
C(8) C(12) C(11) 120.0(18)
O(8) C(13) O(7) 129.4(12)
O(8) C(13) C(14) 115.6(10)
O(7) C(13) C(14) 115.0(10)
C(13) C(14) O(9) 115.9(9)
C(13) C(14) C(15) 111.2(9)
O(9) C(14) C(15) 99.1(10)
O(9) C(16) C(17) 108.7(11)
O(9) C(16) O(10) 104.3(9)
C(17) C(16) O(10) 110.1(12)
O(9) C(16) C(18) 109.8(13)
C(17) C(16) C(18) 112.3(14)
O(10) C(16) C(18) 111.2(13)
O(10) C(15) C(19) 108.4(9)
O(10) C(15) C(14) 104.0(9)
C(19) C(15) C(14) 115.0(10)
O(11) C(19) N(3) 125.8(10)
O(11) C(19) C(15) 120.6(10)
N(3) C(19) C(15) 113.5(9)
C(24) C(20) C(21) 119.5(8)
C(24) C(20) N(3) 115.9(9)
C(21) C(20) N(3) 124.6(10)
C(20) C(21) C(22) 118.4(9)
N(4) C(22) C(21) 122.3(9)
N(4) C(23) C(24) 125.5(10)
C(20) C(24) C(23) 118.3(11)




#END


