####################################################################### 
# 
# This file contains crystal structure data downloaded from the 
# Cambridge Structural Database (CSD) hosted by the Cambridge 
# Crystallographic Data Centre (CCDC).
# 
# Full information about CCDC data access policies and citation 
# guidelines are available at http://www.ccdc.cam.ac.uk/access/V1 
# 
# Audit and citation data items may have been added by the CCDC. 
# Please retain this information to preserve the provenance of 
# this file and to allow appropriate attribution of the data. 
# 
#######################################################################

data_f10615b
_audit_block_doi                 10.5517/cc69lrt
_database_code_depnum_ccdc_archive 'CCDC 187976'
loop_
_citation_id
_citation_doi
_citation_year
1 10.1002/1521-3773(20021202)41:23<4471::AID-ANIE4471>3.0.CO;2-9 2002
_audit_update_record             
;
2002-06-18 deposited with the CCDC.	2024-07-13 downloaded from the CCDC.
;

_audit_creation_method           SHELXL-97
_chemical_name_systematic        
; 
? 
;
_chemical_name_common            ?
_chemical_melting_point          ?
_chemical_formula_moiety         ?
_chemical_formula_sum            'C32 In O8'
_chemical_formula_weight         627.14

loop_
_atom_type_symbol
_atom_type_description
_atom_type_scat_dispersion_real
_atom_type_scat_dispersion_imag
_atom_type_scat_source
C C 0.0033 0.0016 'International Tables Vol C Tables 4.2.6.8 and 6.1.1.4'
O O 0.0106 0.0060 'International Tables Vol C Tables 4.2.6.8 and 6.1.1.4'
In In -0.7276 1.3100 'International Tables Vol C Tables 4.2.6.8 and 6.1.1.4'

_symmetry_cell_setting           ?
_symmetry_space_group_name_H-M   ?

loop_
_symmetry_equiv_pos_as_xyz
'x, y, z'
'-y, x-y, z+1/3'
'-x+y, -x, z+2/3'
'-x, -y, z'
'y, -x+y, z+1/3'
'x-y, x, z+2/3'
'y, x, -z+1/3'
'x-y, -y, -z'
'-x, -x+y, -z+2/3'
'-y, -x, -z+1/3'
'-x+y, y, -z'
'x, x-y, -z+2/3'

_cell_length_a                   15.087(4)
_cell_length_b                   15.087(4)
_cell_length_c                   12.032(5)
_cell_angle_alpha                90.00
_cell_angle_beta                 90.00
_cell_angle_gamma                120.00
_cell_volume                     2371.7(13)
_cell_formula_units_Z            4
_cell_measurement_temperature    293(2)
_cell_measurement_reflns_used    ?
_cell_measurement_theta_min      ?
_cell_measurement_theta_max      ?

_exptl_crystal_description       ?
_exptl_crystal_colour            ?
_exptl_crystal_size_max          ?
_exptl_crystal_size_mid          ?
_exptl_crystal_size_min          ?
_exptl_crystal_density_meas      ?
_exptl_crystal_density_diffrn    1.756
_exptl_crystal_density_method    'not measured'
_exptl_crystal_F_000             1220
_exptl_absorpt_coefficient_mu    1.055
_exptl_absorpt_correction_type   ?
_exptl_absorpt_correction_T_min  ?
_exptl_absorpt_correction_T_max  ?
_exptl_absorpt_process_details   ?

_exptl_special_details           
; 
? 
;

_diffrn_ambient_temperature      293(2)
_diffrn_radiation_wavelength     0.71073
_diffrn_radiation_type           MoK\a
_diffrn_radiation_source         'fine-focus sealed tube'
_diffrn_radiation_monochromator  graphite
_diffrn_measurement_device_type  ?
_diffrn_measurement_method       ?
_diffrn_detector_area_resol_mean ?
_diffrn_standards_number         ?
_diffrn_standards_interval_count ?
_diffrn_standards_interval_time  ?
_diffrn_standards_decay_%        ?
_diffrn_reflns_number            9755
_diffrn_reflns_av_R_equivalents  0.0697
_diffrn_reflns_av_sigmaI/netI    0.0298
_diffrn_reflns_limit_h_min       -17
_diffrn_reflns_limit_h_max       11
_diffrn_reflns_limit_k_min       -12
_diffrn_reflns_limit_k_max       17
_diffrn_reflns_limit_l_min       -14
_diffrn_reflns_limit_l_max       13
_diffrn_reflns_theta_min         1.56
_diffrn_reflns_theta_max         25.00
_reflns_number_total             1400
_reflns_number_gt                1281
_reflns_threshold_expression     >2sigma(I)

_computing_data_collection       ?
_computing_cell_refinement       ?
_computing_data_reduction        ?
_computing_structure_solution    'SHELXS-97 (Sheldrick, 1990)'
_computing_structure_refinement  'SHELXL-97 (Sheldrick, 1997)'
_computing_molecular_graphics    ?
_computing_publication_material  ?

_refine_special_details          
; 
Refinement of F^2^ against ALL reflections.  The weighted R-factor wR and 
goodness of fit S are based on F^2^, conventional R-factors R are based 
on F, with F set to zero for negative F^2^. The threshold expression of 
F^2^ > 2sigma(F^2^) is used only for calculating R-factors(gt) etc. and is 
not relevant to the choice of reflections for refinement.  R-factors based 
on F^2^ are statistically about twice as large as those based on F, and R- 
factors based on ALL data will be even larger. 
;

_refine_ls_structure_factor_coef Fsqd
_refine_ls_matrix_type           full
_refine_ls_weighting_scheme      calc
_refine_ls_weighting_details     
'calc w=1/[\s^2^(Fo^2^)+(0.1343P)^2^+2.4030P] where P=(Fo^2^+2Fc^2^)/3'
_atom_sites_solution_primary     direct
_atom_sites_solution_secondary   difmap
_atom_sites_solution_hydrogens   geom
_refine_ls_hydrogen_treatment    mixed
_refine_ls_extinction_method     none
_refine_ls_extinction_coef       ?
_refine_ls_abs_structure_details 'Flack H D (1983), Acta Cryst. A39, 876-881'
_refine_ls_abs_structure_Flack   0.06(19)
_refine_ls_number_reflns         1400
_refine_ls_number_parameters     58
_refine_ls_number_restraints     0
_refine_ls_R_factor_all          0.0724
_refine_ls_R_factor_gt           0.0669
_refine_ls_wR_factor_ref         0.2234
_refine_ls_wR_factor_gt          0.2182
_refine_ls_goodness_of_fit_ref   1.339
_refine_ls_restrained_S_all      1.339
_refine_ls_shift/su_max          0.000
_refine_ls_shift/su_mean         0.000

loop_
_atom_site_label
_atom_site_type_symbol
_atom_site_fract_x
_atom_site_fract_y
_atom_site_fract_z
_atom_site_U_iso_or_equiv
_atom_site_adp_type
_atom_site_occupancy
_atom_site_symmetry_multiplicity
_atom_site_calc_flag
_atom_site_refinement_flags
_atom_site_disorder_assembly
_atom_site_disorder_group
In1 In 0.5000 0.0000 0.0000 0.0376(4) Uani 1 4 d S . .
O1 O 0.4216(7) 0.0668(6) 0.1029(5) 0.0659(19) Uani 1 1 d . . .
O2 O 0.5865(6) 0.1281(6) 0.1258(6) 0.068(2) Uani 1 1 d . . .
C1 C 0.5095(11) 0.1287(8) 0.1517(7) 0.063(3) Uani 1 1 d . . .
C2 C 0.5045(9) 0.1937(8) 0.2463(7) 0.055(2) Uani 1 1 d . . .
C3 C 0.4138(9) 0.1793(9) 0.2864(9) 0.065(3) Uani 1 1 d . . .
C4 C 0.5996(9) 0.2712(8) 0.2909(8) 0.060(3) Uani 1 1 d . . .

loop_
_atom_site_aniso_label
_atom_site_aniso_U_11
_atom_site_aniso_U_22
_atom_site_aniso_U_33
_atom_site_aniso_U_23
_atom_site_aniso_U_13
_atom_site_aniso_U_12
In1 0.0467(6) 0.0405(7) 0.0235(6) 0.000 0.000 0.0202(3)
O1 0.088(5) 0.058(4) 0.045(3) -0.021(3) 0.000(4) 0.031(4)
O2 0.076(5) 0.087(5) 0.052(4) -0.027(4) -0.006(3) 0.050(4)
C1 0.112(9) 0.049(5) 0.033(4) -0.006(4) -0.005(7) 0.044(6)
C2 0.078(6) 0.053(5) 0.031(4) -0.003(4) 0.005(5) 0.030(5)
C3 0.076(7) 0.075(7) 0.053(5) -0.014(5) 0.004(5) 0.044(6)
C4 0.076(7) 0.065(6) 0.039(4) -0.006(4) -0.001(5) 0.036(5)

_geom_special_details            
; 
All esds (except the esd in the dihedral angle between two l.s. planes) 
are estimated using the full covariance matrix.  The cell esds are taken 
into account individually in the estimation of esds in distances, angles 
and torsion angles; correlations between esds in cell parameters are only 
used when they are defined by crystal symmetry.  An approximate (isotropic) 
treatment of cell esds is used for estimating esds involving l.s. planes. 
;

loop_
_geom_bond_atom_site_label_1
_geom_bond_atom_site_label_2
_geom_bond_distance
_geom_bond_site_symmetry_2
_geom_bond_publ_flag
In1 O1 2.267(7) 8 ?
In1 O1 2.267(7) 4_655 ?
In1 O1 2.267(7) 11_655 ?
In1 O1 2.267(7) . ?
In1 O2 2.283(7) 8 ?
In1 O2 2.283(7) . ?
In1 O2 2.283(7) 4_655 ?
In1 O2 2.283(7) 11_655 ?
In1 C1 2.616(9) 8 ?
In1 C1 2.616(9) . ?
In1 C1 2.616(9) 4_655 ?
In1 C1 2.616(9) 11_655 ?
O1 C1 1.318(14) . ?
O2 C1 1.206(15) . ?
C1 C2 1.529(12) . ?
C2 C3 1.362(16) . ?
C2 C4 1.427(15) . ?
C3 C3 1.40(2) 12 ?
C4 C4 1.338(19) 12 ?

loop_
_geom_angle_atom_site_label_1
_geom_angle_atom_site_label_2
_geom_angle_atom_site_label_3
_geom_angle
_geom_angle_site_symmetry_1
_geom_angle_site_symmetry_3
_geom_angle_publ_flag
O1 In1 O1 134.7(4) 8 4_655 ?
O1 In1 O1 113.8(4) 8 11_655 ?
O1 In1 O1 83.9(4) 4_655 11_655 ?
O1 In1 O1 83.9(4) 8 . ?
O1 In1 O1 113.8(4) 4_655 . ?
O1 In1 O1 134.7(4) 11_655 . ?
O1 In1 O2 57.7(3) 8 8 ?
O1 In1 O2 88.3(3) 4_655 8 ?
O1 In1 O2 79.0(3) 11_655 8 ?
O1 In1 O2 139.0(3) . 8 ?
O1 In1 O2 139.0(3) 8 . ?
O1 In1 O2 79.0(3) 4_655 . ?
O1 In1 O2 88.3(3) 11_655 . ?
O1 In1 O2 57.7(3) . . ?
O2 In1 O2 163.0(4) 8 . ?
O1 In1 O2 88.3(3) 8 4_655 ?
O1 In1 O2 57.7(3) 4_655 4_655 ?
O1 In1 O2 139.0(3) 11_655 4_655 ?
O1 In1 O2 79.0(3) . 4_655 ?
O2 In1 O2 85.6(4) 8 4_655 ?
O2 In1 O2 96.9(4) . 4_655 ?
O1 In1 O2 79.0(3) 8 11_655 ?
O1 In1 O2 139.0(3) 4_655 11_655 ?
O1 In1 O2 57.7(3) 11_655 11_655 ?
O1 In1 O2 88.3(3) . 11_655 ?
O2 In1 O2 96.9(4) 8 11_655 ?
O2 In1 O2 85.6(4) . 11_655 ?
O2 In1 O2 163.0(4) 4_655 11_655 ?
O1 In1 C1 30.3(4) 8 8 ?
O1 In1 C1 111.7(4) 4_655 8 ?
O1 In1 C1 95.8(3) 11_655 8 ?
O1 In1 C1 113.2(4) . 8 ?
O2 In1 C1 27.4(3) 8 8 ?
O2 In1 C1 168.9(4) . 8 ?
O2 In1 C1 86.8(3) 4_655 8 ?
O2 In1 C1 87.8(3) 11_655 8 ?
O1 In1 C1 113.2(4) 8 . ?
O1 In1 C1 95.8(3) 4_655 . ?
O1 In1 C1 111.7(4) 11_655 . ?
O1 In1 C1 30.3(4) . . ?
O2 In1 C1 168.9(4) 8 . ?
O2 In1 C1 27.4(3) . . ?
O2 In1 C1 87.8(3) 4_655 . ?
O2 In1 C1 86.8(3) 11_655 . ?
C1 In1 C1 143.1(6) 8 . ?
O1 In1 C1 111.7(4) 8 4_655 ?
O1 In1 C1 30.3(4) 4_655 4_655 ?
O1 In1 C1 113.2(4) 11_655 4_655 ?
O1 In1 C1 95.8(3) . 4_655 ?
O2 In1 C1 86.8(3) 8 4_655 ?
O2 In1 C1 87.8(3) . 4_655 ?
O2 In1 C1 27.4(3) 4_655 4_655 ?
O2 In1 C1 168.9(4) 11_655 4_655 ?
C1 In1 C1 100.0(5) 8 4_655 ?
C1 In1 C1 91.5(4) . 4_655 ?
O1 In1 C1 95.8(3) 8 11_655 ?
O1 In1 C1 113.2(4) 4_655 11_655 ?
O1 In1 C1 30.3(4) 11_655 11_655 ?
O1 In1 C1 111.7(4) . 11_655 ?
O2 In1 C1 87.8(3) 8 11_655 ?
O2 In1 C1 86.8(3) . 11_655 ?
O2 In1 C1 168.9(4) 4_655 11_655 ?
O2 In1 C1 27.4(3) 11_655 11_655 ?
C1 In1 C1 91.5(4) 8 11_655 ?
C1 In1 C1 100.0(5) . 11_655 ?
C1 In1 C1 143.1(6) 4_655 11_655 ?
C1 O1 In1 89.7(6) . . ?
C1 O2 In1 91.9(7) . . ?
O2 C1 O1 120.8(9) . . ?
O2 C1 C2 123.6(11) . . ?
O1 C1 C2 115.5(11) . . ?
O2 C1 In1 60.7(5) . . ?
O1 C1 In1 60.1(5) . . ?
C2 C1 In1 173.5(9) . . ?
C3 C2 C4 121.1(9) . . ?
C3 C2 C1 122.0(11) . . ?
C4 C2 C1 117.0(10) . . ?
C2 C3 C3 119.2(6) . 12 ?
C4 C4 C2 119.4(6) 12 . ?

_diffrn_measured_fraction_theta_max 1.000
_diffrn_reflns_theta_full        25.00
_diffrn_measured_fraction_theta_full 1.000
_refine_diff_density_max         1.268
_refine_diff_density_min         -0.571
_refine_diff_density_rms         0.273

