
#######################################################################
#
#                 Cambridge Crystallographic Data Centre
#                                CCDC
#
#######################################################################
#
# If this CIF has been generated from an entry in the Cambridge
# Structural Database, then it will include bibliographic, chemical,
# crystal, experimental, refinement or atomic coordinate data resulting
# from the CCDC's data processing and validation procedures.
#
#######################################################################

data_CSD_CIF_VOMBEF
_audit_creation_date 2009-05-28
_audit_creation_method CSD-ConQuest-V1
_database_code_CSD VOMBEF
_database_code_depnum_ccdc_archive 'CCDC 710936'
_chemical_formula_sum 'H12 B12 Li2'
_chemical_formula_moiety
;
H12 B12 2-,2(Li1 1+)
;
_journal_coden_Cambridge 9
_journal_volume 47
_journal_year 2008
_journal_page_first 9757
_journal_name_full 'Inorg.Chem. '
loop_
_publ_author_name
"Jae-Hyuk Her"
"M.Yousufuddin"
"Wei Zhou"
"S.S.Jalisatgi"
"J.G.Kulleck"
"J.A.Zan"
"Son-Jong Hwang"
"R.C.Bowman Junior"
"T.J.Udovic"
_chemical_name_systematic
;
Di-lithium closo-dodecaborate
;
_chemical_name_common
;
Teaching Subset: Fundamental Chemistry, Symmetry
;
_cell_volume    878.428
_exptl_crystal_colour 'white'
_exptl_special_details
;
powder data

;
_diffrn_ambient_temperature 293
#These two values have been output from a single CSD field.
_refine_ls_R_factor_gt 0.041
_refine_ls_wR_factor_gt 0.041
_symmetry_cell_setting cubic
_symmetry_space_group_name_H-M 'P a -3'
_symmetry_Int_Tables_number 205
loop_
_symmetry_equiv_pos_site_id
_symmetry_equiv_pos_as_xyz
1 x,y,z
2 1/2-x,-y,1/2+z
3 1/2+x,1/2-y,-z
4 z,x,y
5 -x,1/2+y,1/2-z
6 1/2-z,-x,1/2+y
7 1/2+z,1/2-x,-y
8 -z,1/2+x,1/2-y
9 y,z,x
10 1/2+y,1/2-z,-x
11 -y,1/2+z,1/2-x
12 1/2-y,-z,1/2+x
13 -x,-y,-z
14 -1/2+x,y,-1/2-z
15 -1/2-x,-1/2+y,z
16 -z,-x,-y
17 x,-1/2-y,-1/2+z
18 -1/2+z,x,-1/2-y
19 -1/2-z,-1/2+x,y
20 z,-1/2-x,-1/2+y
21 -y,-z,-x
22 -1/2-y,-1/2+z,x
23 y,-1/2-z,-1/2+x
24 -1/2+y,z,-1/2-x
_cell_length_a 9.57713(21)
_cell_length_b 9.57713(21)
_cell_length_c 9.57713(21)
_cell_angle_alpha 90
_cell_angle_beta 90
_cell_angle_gamma 90
_cell_formula_units_Z 4
loop_
_atom_type_symbol
_atom_type_radius_bond
H 0.23
B 0.83
Li 1.28
loop_
_atom_site_label
_atom_site_type_symbol
_atom_site_fract_x
_atom_site_fract_y
_atom_site_fract_z
Li1 Li 0.64002(40) 0.64002(40) 0.64002(40)
B1 B -0.09125 -0.09102 0.12363
B2 B -0.17056 -0.03597 -0.03888
H1 H -0.15556 -0.15515 0.21074
H2 H -0.29074 -0.06132 -0.06628
B1O B -0.12363 0.09125 0.09102
B1H B -0.09102 0.12363 -0.09125
B1L B 0.09125 0.09102 -0.12363
B1C B 0.12363 -0.09125 -0.09102
B1T B 0.09102 -0.12363 0.09125
B2H B -0.03597 -0.03888 -0.17056
B2C B -0.03888 -0.17056 -0.03597
B2T B 0.03597 0.03888 0.17056
B2L B 0.17056 0.03597 0.03888
B2O B 0.03888 0.17056 0.03597
H1C H 0.21074 -0.15556 -0.15515
H1H H -0.15515 0.21074 -0.15556
H1T H 0.15515 -0.21074 0.15556
H1L H 0.15556 0.15515 -0.21074
H1O H -0.21074 0.15556 0.15515
H2T H 0.06132 0.06628 0.29074
H2O H 0.06628 0.29074 0.06132
H2L H 0.29074 0.06132 0.06628
H2H H -0.06132 -0.06628 -0.29074
H2C H -0.06628 -0.29074 -0.06132
#END
