
#######################################################################
#
#                 Cambridge Crystallographic Data Centre
#                                CCDC
#
#######################################################################
#
# If this CIF has been generated from an entry in the Cambridge
# Structural Database, then it will include bibliographic, chemical,
# crystal, experimental, refinement or atomic coordinate data resulting
# from the CCDC's data processing and validation procedures.
#
#######################################################################

data_CSD_CIF_WADHIS
_audit_creation_date 1993-09-15
_audit_creation_method CSD-ConQuest-V1
_database_code_CSD WADHIS
_database_code_depnum_ccdc_archive 'CCDC 1289173'
_database_code_depnum_ccdc_fiz 'CSD 56762'
_chemical_formula_sum 'C13 F10 O2 Xe1'
_chemical_formula_moiety
;
C13 F10 O2 Xe1
;
_journal_coden_Cambridge 179
_journal_volume 32
_journal_year 1993
_journal_page_first 99
_journal_name_full 'Angew.Chem.,Int.Ed. '
loop_
_publ_author_name
"H.J.Frohn"
"A.Klose"
"G.Henkel"
_chemical_name_systematic
;
Pentafluorobenzoato-pentafluorophenyl-xenon(ii)
;
_chemical_name_common
;
Teaching Subset: Fundamental Chemistry
;
_chemical_melting_point 358.15
_cell_volume   1404.831
_exptl_crystal_density_diffrn 2.409
_exptl_special_details
;
Melts with decomposition.

;
_diffrn_ambient_temperature 156.15
#These two values have been output from a single CSD field.
_refine_ls_R_factor_gt 0.0274
_refine_ls_wR_factor_gt 0.0274
_symmetry_cell_setting monoclinic
_symmetry_space_group_name_H-M 'P 21/c'
_symmetry_Int_Tables_number 14
loop_
_symmetry_equiv_pos_site_id
_symmetry_equiv_pos_as_xyz
1 x,y,z
2 -x,1/2+y,1/2-z
3 -x,-y,-z
4 x,-1/2-y,-1/2+z
_cell_length_a 11.165(4)
_cell_length_b 10.571(3)
_cell_length_c 12.950(4)
_cell_angle_alpha 90
_cell_angle_beta 113.20(2)
_cell_angle_gamma 90
_cell_formula_units_Z 4
loop_
_atom_type_symbol
_atom_type_radius_bond
C 0.68
F 0.64
O 0.68
Xe 1.32
loop_
_atom_site_label
_atom_site_type_symbol
_atom_site_fract_x
_atom_site_fract_y
_atom_site_fract_z
Xe1 Xe 0.10726(2) 0.19593(2) 0.08195(1)
C1 C -0.0306(3) 0.3021(3) 0.1211(3)
C2 C -0.1055(3) 0.3922(3) 0.0461(2)
C3 C -0.1945(3) 0.4639(3) 0.0695(3)
C4 C -0.2104(3) 0.4436(3) 0.1689(3)
C5 C -0.1373(3) 0.3542(3) 0.2439(2)
C6 C -0.0461(3) 0.2842(3) 0.2213(3)
C7 C 0.2135(3) 0.0161(3) -0.0492(2)
C8 C 0.3106(3) -0.0577(3) -0.0809(2)
C9 C 0.3759(3) -0.1602(3) -0.0196(3)
C10 C 0.4569(3) -0.2338(3) -0.0515(3)
C11 C 0.4775(3) -0.2021(3) -0.1464(3)
C12 C 0.4165(3) -0.0991(3) -0.2081(3)
C13 C 0.3324(3) -0.0282(3) -0.1764(3)
F1 F -0.0930(2) 0.4098(2) -0.0514(2)
F2 F -0.2612(2) 0.5546(2) -0.0010(2)
F3 F -0.2956(2) 0.5132(2) 0.1929(2)
F4 F -0.1536(2) 0.3367(2) 0.3398(2)
F5 F 0.0285(2) 0.2010(2) 0.2966(2)
F6 F 0.3552(3) -0.1946(2) 0.0722(2)
F7 F 0.5146(3) -0.3356(3) 0.0084(2)
F8 F 0.5565(2) -0.2718(2) -0.1780(2)
F9 F 0.4382(3) -0.0669(2) -0.2986(2)
F10 F 0.2727(2) 0.0722(2) -0.2382(2)
O1 O 0.2648(2) 0.0837(3) 0.0384(2)
O2 O 0.0975(2) 0.0057(2) -0.1075(2)
#END
