####################################################################### 
# 
# This file contains crystal structure data downloaded from the 
# Cambridge Structural Database (CSD) hosted by the Cambridge 
# Crystallographic Data Centre (CCDC).
# 
# Full information about CCDC data access policies and citation 
# guidelines are available at http://www.ccdc.cam.ac.uk/access/V1 
# 
# Audit and citation data items may have been added by the CCDC. 
# Please retain this information to preserve the provenance of 
# this file and to allow appropriate attribution of the data. 
# 
#######################################################################

data_compound_1
_audit_block_doi                 10.5517/cc3f5sg
_database_code_depnum_ccdc_archive 'CCDC 102045'
loop_
_citation_id
_citation_doi
_citation_year
1 10.1016/S0020-1693(00)00079-7 2000
_audit_update_record             
;
1998-06-25 deposited with the CCDC.	2024-07-13 downloaded from the CCDC.
;

_audit_creation_method           'Manually at CCDC'

_chemical_name_systematic        
; 
? 
;
_chemical_name_common            'Erbium(III) trimesate hydrated'
_chemical_formula_sum            ' ?   '
_chemical_formula_moiety         'Er3C27 O30H33    '

_chemical_formula_weight         1339.32

_symmetry_cell_setting           triclinic
_symmetry_space_group_name_H-M   P-1
_symmetry_Int_Tables_number      ?

loop_
_symmetry_equiv_pos_as_xyz
?
?
?

_cell_length_a                   9.9876(15)
_cell_length_b                   15.656(3)
_cell_length_c                   19.698(3)
_cell_angle_alpha                110.77(2)
_cell_angle_beta                 100.63(2)
_cell_angle_gamma                100.58(2)
_cell_volume                     2724.6(8)
_cell_formula_units_Z            2

_exptl_crystal_density_diffrn    1.633

_diffrn_ambient_temperature      298

_diffrn_source                   ?

_diffrn_radiation_probe          x-ray

_chemical_melting_point          ?

_exptl_crystal_description       ?
_exptl_crystal_colour            ' ?    '
_exptl_special_details           
;
#include here any other information not included in the CIF
;

_refine_ls_R_factor_gt           0.0608


loop_
_atom_site_label
_atom_site_fract_x
_atom_site_fract_y
_atom_site_fract_z
_atom_site_U_iso_or_equiv
Er1 0.51839(5) 0.21065(4) 0.07092(3) 0.02198(15)
Er2 1.28315(6) 0.27280(4) 0.31696(3) 0.0243(2)
Er3 1.99051(5) 0.48084(4) 0.78266(3) 0.02325(15)
O11 0.2831(8) 0.1952(6) 0.0842(4) 0.027(2)
O12 0.3145(9) 0.0969(7) -0.0175(5) 0.045(3)
O13 1.0927(10) 0.1354(7) 0.2268(5) 0.051(3)
O14 1.3076(9) 0.1363(6) 0.2201(5) 0.034(2)
O15 0.7654(9) 0.2040(6) 0.0884(4) 0.030(2)
O16 0.6060(10) 0.1157(8) -0.0182(6) 0.058(3)
O21 1.5352(8) 0.3129(7) 0.3137(4) 0.033(2)
O22 1.4851(10) 0.3254(9) 0.4197(5) 0.053(3)
O23 2.0511(10) 0.4322(8) 0.6637(5) 0.049(3)
O24 1.8502(9) 0.4671(7) 0.6640(4) 0.033(2)
O25 1.0604(8) 0.3116(6) 0.3213(4) 0.029(2)
O26 1.1890(11) 0.3163(10) 0.4242(5) 0.063(4)
O31 2.2441(9) 0.5129(6) 0.8059(4) 0.028(2)
O32 2.1358(10) 0.3965(8) 0.8291(7) 0.056(3)
O33 1.8568(10) 0.4270(7) 0.8568(6) 0.044(2)
O34 1.7710(9) 0.5178(7) 0.8062(5) 0.032(2)
O35 0.6340(10) 0.3236(7) 0.0315(5) 0.040(2)
O36 0.4092(11) 0.2924(10) 0.0057(8) 0.072(4)
O101 0.5817(10) 0.3347(7) 0.1869(5) 0.039(2)
O102 0.5259(11) 0.1334(8) 0.1512(5) 0.048(3)
O201 1.2465(11) 0.3110(6) 0.2105(4) 0.037(2)
O202 1.3424(10) 0.4374(7) 0.3581(6) 0.046(3)
O203 1.2828(26) 0.1516(11) 0.3653(7) 0.135(9)
O301 2.0558(10) 0.6331(6) 0.7848(5) 0.035(2)
O302 2.0818(10) 0.5905(8) 0.9107(5) 0.046(3)
O303 1.8637(16) 0.3149(9) 0.7139(7) 0.081(4)
C11 0.0770(13) 0.1010(8) -0.0179(7) 0.026(3)
C12 0.9742(13) -0.0245(8) 0.0883(6) 0.026(3)
C13 1.1201(12) 0.0109(8) 0.1223(6) 0.023(2)
C14 1.2094(13) -0.0332(8) 0.0862(6) 0.026(3)
C15 0.8387(12) 0.1066(8) -0.0160(6) 0.026(3)
C16 0.9825(13) 0.1421(8) 0.0192(6) 0.026(3)
C17 0.2308(12) 0.1308(8) 0.0186(6) 0.022(2)
C18 1.1744(13) 0.0974(9) 0.1935(7) 0.030(3)
C19 0.7330(13) 0.1448(9) 0.0200(7) 0.032(3)
C21 1.7251(13) 0.3523(9) 0.4248(6) 0.028(3)
C22 1.7635(13) 0.3864(9) 0.5031(6) 0.030(3)
C23 1.8982(12) 0.4040(8) 0.5436(6) 0.025(2)
C24 1.9999(14) 0.3846(9) 0.5055(6) 0.030(3)
C25 0.9681(12) 0.3498(9) 0.4283(6) 0.026(3)
C26 1.8322(13) 0.3339(9) 0.3882(6) 0.029(3)
C27 1.5737(13) 0.3284(10) 0.3843(6) 0.033(3)
C28 1.9368(13) 0.4360(9) 0.6275(6) 0.029(3)
C29 1.0798(13) 0.3257(10) 0.3899(7) 0.032(3)
C31 2.3877(13) 0.4339(9) 0.8628(7) 0.032(3)
C32 2.5096(12) 0.4657(9) 0.8418(6) 0.027(3)
C33 2.6327(12) 0.4447(9) 0.8702(7) 0.028(3)
C34 2.6402(12) 0.4043(8) 0.9214(6) 0.025(2)
C35 2.5196(12) 0.3778(9) 0.9434(6) 0.026(3)
C36 2.3947(13) 0.3924(8) 0.9133(7) 0.028(3)
C37 2.2501(14) 0.4506(9) 0.8313(7) 0.031(3)
C38 1.7634(12) 0.4661(9) 0.8438(7) 0.028(3)
C39 0.5216(13) 0.3291(9) -0.0034(6) 0.028(3)
O1 0.5833(18) 0.5785(18) 0.4337(9) 0.164(11)
O2 0.7593(43) 0.0857(31) 0.2179(20) 0.306(22)
O3 0.7479(32) 0.6679(24) 0.3653(14) 0.212(15)
O4 0.9458(34) 0.6289(20) 0.0203(18) 0.268(23)
H12 0.9115(13) 0.0027(8) 0.1125(6) 0.031
H14 1.3059(13) -0.0126(8) 0.1102(6) 0.031
H16 1.0161(13) 0.1922(8) 0.0665(6) 0.031
H22 1.6944(13) 0.3975(9) 0.5284(6) 0.036
H24 2.0922(14) 0.3955(9) 0.5330(6) 0.035
H26 1.8098(13) 0.3105(9) 0.3358(6) 0.035
H32 2.5078(12) 0.4989(9) 0.8109(6) 0.033
H34 2.7251(12) 0.3945(8) 0.9414(6) 0.030
H36 2.3141(13) 0.3739(8) 0.9275(7) 0.033

loop_
_geom_bond_atom_site_label_1
_geom_bond_atom_site_label_2
_geom_bond_distance
Er1 O101 2.294(8)
Er1 O16 2.292(10)
Er1 O102 2.305(10)
Er1 O12 2.347(8)
Er1 O35 2.371(9)
Er1 O36 2.374(11)
Er1 O11 2.390(8)
Er1 O15 2.454(8)
Er2 O202 2.330(10)
Er2 O22 2.355(9)
Er2 O201 2.362(9)
Er2 O14 2.395(8)
Er2 O26 2.400(9)
Er2 O203 2.407(15)
Er2 O25 2.420(8)
Er2 O13 2.438(9)
Er2 O21 2.499(8)
Er3 O301 2.337(9)
Er3 O302 2.376(8)
Er3 O32 2.399(11)
Er3 O33 2.409(9)
Er3 O24 2.407(8)
Er3 O31 2.413(8)
Er3 O303 2.419(12)
Er3 O23 2.422(9)
Er3 O34 2.451(9)
O11 C17 1.262(13)
O12 C17 1.265(14)
O13 C18 1.24(2)
O14 C18 1.279(15)
O15 C19 1.274(13)
O16 C19 1.255(15)
O21 C27 1.292(14)
O22 C27 1.23(2)
O23 C28 1.253(14)
O24 C28 1.280(14)
O25 C29 1.259(14)
O26 C29 1.235(15)
O31 C37 1.250(15)
O32 C37 1.27(2)
O33 C38 1.24(2)
O34 C38 1.28(2)
O35 C39 1.239(15)
O36 C39 1.24(2)
C11 C12 1.40(2)
C11 C16 1.41(2)
C11 C17 1.48(2)
C12 C13 1.40(2)
C13 C14 1.37(2)
C13 C18 1.48(2)
C14 C15 1.375(15)
C15 C16 1.39(2)
C15 C19 1.48(2)
C21 C22 1.390(15)
C21 C26 1.41(2)
C21 C27 1.48(2)
C22 C23 1.35(2)
C23 C24 1.39(2)
C23 C28 1.497(15)
C24 C25 1.372(15)
C25 C26 1.37(2)
C25 C29 1.49(2)
C31 C36 1.37(2)
C31 C32 1.42(2)
C31 C37 1.51(2)
C32 C33 1.40(2)
C33 C34 1.37(2)
C33 C38 1.52(2)
C34 C35 1.40(2)
C35 C36 1.37(2)
C35 C39 1.50(2)

loop_
_atom_site_aniso_label
_atom_site_aniso_U_11
_atom_site_aniso_U_22
_atom_site_aniso_U_33
_atom_site_aniso_U_12
_atom_site_aniso_U_13
_atom_site_aniso_U_23
#ATOM	U11	U22	U33	U12	U13	U23
Er1 0.0108(3) 0.0330(3) 0.0191(2) 0.0073(2) 0.0042(2) 0.0051(2)
Er2 0.0141(3) 0.0384(3) 0.0137(2) 0.0026(2) 0.0034(2) 0.0083(2)
Er3 0.0120(3) 0.0404(3) 0.0192(2) 0.0133(2) 0.0043(2) 0.0087(2)
O11 0.015(4) 0.035(5) 0.023(4) 0.001(3) 0.008(3) 0.007(3)
O12 0.019(5) 0.053(6) 0.033(5) -0.016(4) 0.006(4) 0.005(4)
O13 0.022(6) 0.061(7) 0.039(5) -0.015(5) 0.012(4) 0.001(4)
O14 0.015(5) 0.040(5) 0.030(4) -0.001(4) 0.003(3) 0.003(4)
O15 0.020(5) 0.038(5) 0.020(4) -0.001(3) 0.002(3) 0.012(4)
O16 0.008(5) 0.069(7) 0.051(6) -0.020(5) -0.001(4) 0.007(4)
O21 0.010(4) 0.067(6) 0.011(3) 0.003(4) -0.002(3) 0.012(4)
O22 0.014(5) 0.124(10) 0.030(5) 0.033(6) 0.014(4) 0.029(5)
O23 0.015(5) 0.108(9) 0.027(5) 0.023(5) 0.006(4) 0.031(5)
O24 0.013(4) 0.065(6) 0.018(4) 0.009(4) 0.005(3) 0.020(4)
O25 0.015(4) 0.059(6) 0.013(4) 0.011(4) 0.005(3) 0.014(4)
O26 0.025(6) 0.151(12) 0.031(5) 0.041(6) 0.016(4) 0.051(7)
O31 0.019(5) 0.037(5) 0.030(4) 0.017(4) 0.002(3) 0.010(3)
O32 0.017(5) 0.076(8) 0.097(9) 0.059(7) 0.013(5) 0.010(5)
O33 0.017(5) 0.067(7) 0.074(7) 0.049(6) 0.022(5) 0.018(4)
O34 0.022(5) 0.055(6) 0.034(5) 0.027(4) 0.015(4) 0.017(4)
O35 0.024(5) 0.060(6) 0.041(5) 0.031(5) 0.004(4) 0.005(4)
O36 0.026(6) 0.124(11) 0.123(11) 0.106(10) 0.033(6) 0.026(7)
O101 0.032(6) 0.047(5) 0.027(4) 0.006(4) 0.010(4) 0.001(4)
O102 0.032(6) 0.078(7) 0.046(6) 0.034(5) 0.015(4) 0.017(5)
O201 0.048(6) 0.045(5) 0.021(4) 0.010(4) 0.010(4) 0.023(4)
O202 0.029(6) 0.039(5) 0.050(6) 0.000(4) -0.003(4) 0.012(4)
O203 0.275(26) 0.068(10) 0.037(7) 0.023(7) 0.008(11) 0.020(12)
O301 0.036(6) 0.044(5) 0.029(4) 0.019(4) 0.005(4) 0.012(4)
O302 0.029(6) 0.076(7) 0.017(4) 0.007(4) 0.004(4) 0.002(5)
O303 0.104(12) 0.059(8) 0.058(8) 0.017(6) 0.012(7) -0.007(7)
C11 0.017(6) 0.026(6) 0.038(6) 0.013(5) 0.010(5) 0.009(5)
C12 0.020(6) 0.024(6) 0.034(6) 0.011(5) 0.014(5) 0.005(5)
C13 0.018(6) 0.031(6) 0.020(5) 0.008(5) 0.005(4) 0.011(5)
C14 0.018(6) 0.025(6) 0.025(6) 0.003(5) 0.001(4) 0.005(4)
C15 0.019(6) 0.018(5) 0.029(6) 0.002(4) 0.005(5) -0.003(4)
C16 0.019(6) 0.032(6) 0.025(6) 0.009(5) 0.005(4) 0.010(5)
C17 0.018(6) 0.024(6) 0.025(6) 0.009(5) 0.008(4) 0.006(4)
C18 0.025(7) 0.029(6) 0.029(6) 0.008(5) -0.002(5) 0.007(5)
C19 0.014(7) 0.048(8) 0.027(6) 0.005(5) 0.005(5) 0.015(5)
C21 0.017(6) 0.043(7) 0.021(6) 0.009(5) 0.006(4) 0.012(5)
C22 0.024(7) 0.048(8) 0.010(5) 0.005(5) 0.003(4) 0.003(5)
C23 0.013(6) 0.035(6) 0.021(5) 0.006(5) 0.004(4) 0.005(5)
C24 0.026(7) 0.042(7) 0.020(6) 0.010(5) 0.008(5) 0.014(5)
C25 0.017(6) 0.047(7) 0.014(5) 0.011(5) 0.005(4) 0.009(5)
C26 0.020(7) 0.055(8) 0.012(5) 0.009(5) 0.002(4) 0.017(5)
C27 0.017(7) 0.061(9) 0.020(6) 0.010(6) 0.005(5) 0.019(6)
C28 0.023(7) 0.037(7) 0.018(5) 0.004(5) 0.002(4) 0.008(5)
C29 0.011(6) 0.059(8) 0.036(7) 0.024(6) 0.011(5) 0.017(5)
C31 0.015(7) 0.047(8) 0.039(7) 0.022(6) 0.007(5) 0.011(5)
C32 0.015(6) 0.045(7) 0.022(5) 0.014(5) 0.004(4) 0.008(5)
C33 0.010(6) 0.036(7) 0.036(7) 0.011(5) 0.010(5) 0.003(5)
C34 0.012(6) 0.038(7) 0.031(6) 0.017(5) 0.006(4) 0.011(5)
C35 0.013(6) 0.046(7) 0.024(6) 0.019(5) 0.008(4) 0.005(5)
C36 0.023(7) 0.032(6) 0.033(6) 0.017(5) 0.012(5) 0.004(5)
C37 0.025(7) 0.042(7) 0.036(7) 0.020(6) 0.013(5) 0.016(6)
C38 0.008(6) 0.037(7) 0.034(6) 0.011(5) 0.004(5) 0.000(5)
C39 0.023(7) 0.035(7) 0.022(6) 0.010(5) 0.005(5) 0.004(5)
O1 0.068(12) 0.240(25) 0.072(11) -0.012(13) -0.008(9) -0.038(14)
O2 0.390(47) 0.523(57) 0.349(40) 0.337(42) 0.321(38) 0.372(44)
O3 0.235(32) 0.356(38) 0.193(25) 0.163(26) 0.123(22) 0.251(31)
O4 0.254(35) 0.209(26) 0.253(31) -0.034(23) 0.230(30) -0.044(24)



loop_
_geom_angle_atom_site_label_1
_geom_angle_atom_site_label_2
_geom_angle_atom_site_label_3
_geom_angle
O101 Er1 O16 143.7(3)
O101 Er1 O102 78.0(4)
O16 Er1 O102 99.2(4)
O101 Er1 O12 139.4(3)
O16 Er1 O12 76.6(3)
O102 Er1 O12 93.3(4)
O101 Er1 O35 85.0(3)
O16 Er1 O35 79.7(4)
O102 Er1 O35 149.3(3)
O12 Er1 O35 115.9(4)
O101 Er1 O36 94.7(5)
O16 Er1 O36 102.0(5)
O102 Er1 O36 152.4(4)
O12 Er1 O36 74.9(4)
O35 Er1 O36 53.4(3)
O101 Er1 O11 84.9(3)
O16 Er1 O11 130.7(3)
O102 Er1 O11 80.2(3)
O12 Er1 O11 54.5(3)
O35 Er1 O11 123.8(3)
O36 Er1 O11 72.7(3)
O101 Er1 O15 89.5(3)
O16 Er1 O15 54.6(3)
O102 Er1 O15 80.9(3)
O12 Er1 O15 128.6(3)
O35 Er1 O15 73.5(3)
O36 Er1 O15 125.9(3)
O11 Er1 O15 161.0(3)
O202 Er2 O22 76.2(4)
O202 Er2 O201 71.3(3)
O22 Er2 O201 129.8(4)
O202 Er2 O14 139.8(4)
O22 Er2 O14 107.2(3)
O201 Er2 O14 77.3(3)
O202 Er2 O26 79.0(4)
O22 Er2 O26 76.8(3)
O201 Er2 O26 130.6(3)
O14 Er2 O26 141.2(4)
O202 Er2 O203 140.7(4)
O22 Er2 O203 71.6(6)
O201 Er2 O203 147.8(4)
O14 Er2 O203 72.7(4)
O26 Er2 O203 72.3(6)
O202 Er2 O25 75.9(3)
O22 Er2 O25 126.2(3)
O201 Er2 O25 81.3(3)
O14 Er2 O25 123.7(3)
O26 Er2 O25 53.2(3)
O203 Er2 O25 105.9(6)
O202 Er2 O13 138.5(4)
O22 Er2 O13 144.7(4)
O201 Er2 O13 78.8(4)
O14 Er2 O13 53.4(3)
O26 Er2 O13 100.7(4)
O203 Er2 O13 74.2(5)
O25 Er2 O13 71.7(3)
O202 Er2 O21 77.0(3)
O22 Er2 O21 53.5(3)
O201 Er2 O21 82.2(3)
O14 Er2 O21 74.3(3)
O26 Er2 O21 128.5(3)
O203 Er2 O21 100.4(6)
O25 Er2 O21 151.6(3)
O13 Er2 O21 126.9(3)
O301 Er3 O302 71.9(3)
O301 Er3 O32 128.8(3)
O302 Er3 O32 80.7(4)
O301 Er3 O33 128.7(3)
O302 Er3 O33 71.5(3)
O32 Er3 O33 78.0(3)
O301 Er3 O24 75.7(3)
O302 Er3 O24 140.3(4)
O32 Er3 O24 138.6(4)
O33 Er3 O24 114.6(3)
O301 Er3 O31 77.4(3)
O302 Er3 O31 75.2(3)
O32 Er3 O31 53.8(3)
O33 Er3 O31 124.8(3)
O24 Er3 O31 119.2(3)
O301 Er3 O303 149.2(4)
O302 Er3 O303 137.4(4)
O32 Er3 O303 74.8(5)
O33 Er3 O303 69.7(4)
O24 Er3 O303 73.8(4)
O31 Er3 O303 114.3(4)
O301 Er3 O23 84.1(4)
O302 Er3 O23 141.6(3)
O32 Er3 O23 92.3(4)
O33 Er3 O23 144.1(4)
O24 Er3 O23 53.5(3)
O31 Er3 O23 70.4(3)
O303 Er3 O23 74.4(4)
O301 Er3 O34 85.8(3)
O302 Er3 O34 81.1(3)
O32 Er3 O34 132.0(3)
O33 Er3 O34 54.1(3)
O24 Er3 O34 74.1(3)
O31 Er3 O34 154.3(3)
O303 Er3 O34 90.0(5)
O23 Er3 O34 127.6(3)
C17 O11 Er1 92.3(6)
C17 O12 Er1 94.3(6)
C18 O13 Er2 93.2(7)
C18 O14 Er2 94.3(7)
C19 O15 Er1 89.0(7)
C19 O16 Er1 97.0(7)
C27 O21 Er2 88.7(7)
C27 O22 Er2 97.1(7)
C28 O23 Er3 94.0(7)
C28 O24 Er3 93.9(7)
C29 O25 Er2 92.7(7)
C29 O26 Er2 94.2(8)
C37 O31 Er3 93.2(8)
C37 O32 Er3 93.2(8)
C38 O33 Er3 93.0(8)
C38 O34 Er3 90.2(7)
C39 O35 Er1 93.5(8)
C39 O36 Er1 93.3(8)
C12 C11 C16 120.3(11)
C12 C11 C17 117.8(10)
C16 C11 C17 121.6(10)
C13 C12 C11 119.8(11)
C14 C13 C12 118.5(10)
C14 C13 C18 121.9(10)
C12 C13 C18 119.5(10)
C13 C14 C15 122.4(11)
C14 C15 C16 120.0(11)
C14 C15 C19 118.0(10)
C16 C15 C19 122.0(10)
C15 C16 C11 118.9(10)
O12 C17 O11 118.2(10)
O12 C17 C11 120.5(10)
O11 C17 C11 121.2(10)
O13 C18 O14 118.9(11)
O13 C18 C13 121.4(11)
O14 C18 C13 119.7(11)
O16 C19 O15 119.2(11)
O16 C19 C15 118.2(10)
O15 C19 C15 122.6(10)
C22 C21 C26 117.2(11)
C22 C21 C27 118.8(11)
C26 C21 C27 123.7(10)
C23 C22 C21 122.1(11)
C22 C23 C24 118.8(10)
C22 C23 C28 121.6(11)
C24 C23 C28 119.4(10)
C25 C24 C23 121.7(11)
C26 C25 C24 118.8(11)
C26 C25 C29 121.5(10)
C24 C25 C29 119.6(11)
C25 C26 C21 121.3(10)
O22 C27 O21 120.4(11)
O22 C27 C21 118.5(10)
O21 C27 C21 121.2(11)
O23 C28 O24 118.3(10)
O23 C28 C23 122.1(11)
O24 C28 C23 119.6(10)
O26 C29 O25 119.9(11)
O26 C29 C25 120.3(11)
O25 C29 C25 119.7(10)
C36 C31 C32 121.1(11)
C36 C31 C37 119.8(11)
C32 C31 C37 119.1(11)
C33 C32 C31 116.5(11)
C34 C33 C32 122.2(11)
C34 C33 C38 117.7(11)
C32 C33 C38 120.1(11)
C33 C34 C35 119.5(11)
C36 C35 C34 119.8(11)
C36 C35 C39 118.9(10)
C34 C35 C39 121.2(11)
C31 C36 C35 120.6(11)
O31 C37 O32 119.4(12)
O31 C37 C31 122.8(12)
O32 C37 C31 117.8(12)
O33 C38 O34 122.6(11)
O33 C38 C33 116.9(12)
O34 C38 C33 120.3(11)
O35 C39 O36 118.6(12)
O35 C39 C35 121.3(11)
O36 C39 C35 120.1(11)

loop_
_geom_torsion_atom_site_label_1
_geom_torsion_atom_site_label_2
_geom_torsion_atom_site_label_3
_geom_torsion_atom_site_label_4
_geom_torsion
_geom_torsion_site_symmetry_1
_geom_torsion_site_symmetry_2
_geom_torsion_site_symmetry_3
_geom_torsion_site_symmetry_4
_geom_torsion_publ_flag
? ? ? ? ? ? ? ? ? ?

#END
#Attach the next CIF data_number_n+1 below

