####################################################################### 
# 
# This file contains crystal structure data downloaded from the 
# Cambridge Structural Database (CSD) hosted by the Cambridge 
# Crystallographic Data Centre (CCDC).
# 
# Full information about CCDC data access policies and citation 
# guidelines are available at http://www.ccdc.cam.ac.uk/access/V1 
# 
# Audit and citation data items may have been added by the CCDC. 
# Please retain this information to preserve the provenance of 
# this file and to allow appropriate attribution of the data. 
# 
#######################################################################

data_CPO-27-Zn-373K_021
_audit_block_doi                 10.5517/ccpnfxn
_database_code_depnum_ccdc_archive 'CCDC 645262'
loop_
_citation_id
_citation_doi
_citation_year
1 10.1002/chem.200701370 2008
_audit_update_record             
;
2007-04-26 deposited with the CCDC.	2024-07-13 downloaded from the CCDC.
;
_diffrn_ambient_temperature      373

_pd_meas_scan_method             step
_pd_meas_number_of_points        2255
_pd_meas_2theta_range_min        0.007
_pd_meas_2theta_range_max        30.400
_pd_meas_2theta_range_inc        0.013
_pd_proc_ls_profile_function     pseudo-Voigt
_pd_proc_ls_background_function  Chebyshev

_pd_proc_ls_special_details      
;
?
;

_pd_proc_ls_prof_R_factor        0.0191
_pd_proc_ls_prof_wR_factor       0.0244
_pd_proc_ls_prof_wR_expected     0.0032
_refine_special_details          
;
?
;

_pd_proc_2theta_range_min        2.245
_pd_proc_2theta_range_max        30.226
_pd_proc_2theta_range_inc        0.013
loop_
_pd_proc_wavelength
0.710960
0.710960

_pd_proc_info_data_reduction     
;
?
;


_pd_calibration_special_details  
;
?
;

_refine_ls_structure_factor_coef Inet
_refine_ls_matrix_type           full
_refine_ls_weighting_scheme      sigma
_refine_ls_hydrogen_treatment    noref
_refine_ls_extinction_method     none
_refine_ls_extinction_coef       ?
_refine_ls_number_parameters     50
_refine_ls_number_restraints     23
_refine_ls_number_constraints    0
_refine_ls_goodness_of_fit_all   7.53
_refine_ls_shift/su_max          3.9350
_refine_ls_shift/su_mean         0.5510

_chemical_name_systematic        
;
?
;

_chemical_name_common            ?
_chemical_melting_point          ?
_chemical_formula_moiety         ?
_chemical_formula_sum            ?
_chemical_formula_weight         3137.31


_symmetry_cell_setting           Trigonal
_symmetry_space_group_name_H-M   R-3
_symmetry_int_tables_number      ?
_symmetry_space_group_name_Hall  '-R 3'

loop_
_symmetry_equiv_pos_as_xyz
x,y,z
x+1/3,y+2/3,z+2/3
x+2/3,y+1/3,z+1/3
-y,x-y,z
-x+y,-x,z
-y+1/3,x-y+2/3,z+2/3
-x+y+1/3,-x+2/3,z+2/3
-y+2/3,x-y+1/3,z+1/3
-x+y+2/3,-x+1/3,z+1/3
-x,-y,-z
-x+2/3,-y+1/3,-z+1/3
-x+1/3,-y+2/3,-z+2/3
y,-x+y,-z
x-y,x,-z
y+2/3,-x+y+1/3,-z+1/3
x-y+2/3,x+1/3,-z+1/3
y+1/3,-x+y+2/3,-z+2/3
x-y+1/3,x+2/3,-z+2/3

_cell_length_a                   26.22054(187)
_cell_length_b                   26.22054(187)
_cell_length_c                   6.32019(48)
_cell_angle_alpha                90.00000(0)
_cell_angle_beta                 90.00000(0)
_cell_angle_gamma                120.00000(0)
_cell_volume                     3763.1(5)
_cell_formula_units_Z            18
_cell_measurement_temperature    373
_exptl_crystal_density_meas      ?
_exptl_crystal_density_diffrn    1.384
_exptl_crystal_density_method    ?
_exptl_crystal_F_000             1528.8
_exptl_absorpt_coefficient_mu    2.79
_exptl_absorpt_correction_type   cylinder
_exptl_absorpt_correction_T_min  0.657
_exptl_absorpt_correction_T_max  0.657


loop_
_atom_site_label
_atom_site_fract_x
_atom_site_fract_y
_atom_site_fract_z
_atom_site_occupancy
_atom_site_B_iso_or_equiv
_atom_site_adp_type
_atom_site_type_symbol
C1 0.42538(6) 0.40955(8) 0.28115(25) 1.0000 1.500 Biso C
C2 0.46085(7) 0.45640(9) 0.14311(18) 1.0000 1.500 Biso C
C3 0.55685(4) 0.54486(5) 0.06906(15) 1.0000 1.500 Biso C
C4 0.51988(7) 0.49984(10) 0.20839(18) 1.0000 1.500 Biso C
H4 0.53268(18) 0.49892(23) 0.35153(51) 1.0000 1.500 Biso H
Zn1 0.61341(3) 0.65025(3) 0.32720(13) 1.0000 2.000 Biso Zn
O1 0.44868(8) 0.40018(9) 0.44096(29) 1.0000 2.000 Biso O
O2 0.36989(6) 0.38521(9) 0.26956(35) 1.0000 2.000 Biso O
O3 0.61235(5) 0.58802(9) 0.13517(28) 1.0000 2.000 Biso O
O4 0.12421(25) 0.67303(23) 0.11433(78) 0.5008(324) 3.500 Biso O
O7 0.87449 0.36139 0.45732 0.2407(284) 10.000 Biso O
