####################################################################### 
# 
# This file contains crystal structure data downloaded from the 
# Cambridge Structural Database (CSD) hosted by the Cambridge 
# Crystallographic Data Centre (CCDC).
# 
# Full information about CCDC data access policies and citation 
# guidelines are available at http://www.ccdc.cam.ac.uk/access/V1 
# 
# Audit and citation data items may have been added by the CCDC. 
# Please retain this information to preserve the provenance of 
# this file and to allow appropriate attribution of the data. 
# 
#######################################################################

data_STA12MN-AP
_audit_block_doi                 10.5517/cczrqxb
_database_code_depnum_ccdc_archive 'CCDC 916543'
loop_
_citation_id
_citation_doi
_citation_year
1 10.1016/j.micromeso.2011.12.003 2012
_audit_update_record             
;
2012-12-20 deposited with the CCDC.	2024-07-13 downloaded from the CCDC.
;


_audit_creation_method           'from EXP file using GSAS2CIF'
_audit_creation_date             2011-05-25T14:52
# 5. OVERALL REFINEMENT & COMPUTING DETAILS

_refine_special_details          
; ?
;
_pd_proc_ls_special_details      
; ?
;

# The following items are used to identify the programs used.
_computing_molecular_graphics    ?
_computing_publication_material  ?

_refine_ls_weighting_scheme      ?
_refine_ls_weighting_details     ?
_refine_ls_hydrogen_treatment    ?
_refine_ls_extinction_method     ?
_refine_ls_extinction_coef       ?
_refine_ls_number_constraints    ?

_refine_ls_restrained_S_all      ?
_refine_ls_restrained_S_obs      ?

#==============================================================================
# 6. SAMPLE PREPARATION DATA

# (In the unusual case where multiple samples are used in a single
# Rietveld study, this information should be moved into the phase
# blocks)

# The following three fields describe the preparation of the material.
# The cooling rate is in K/min. The pressure at which the sample was
# prepared is in kPa. The temperature of preparation is in K.

_pd_prep_cool_rate               ?
_pd_prep_pressure                ?
_pd_prep_temperature             ?

_pd_char_colour                  white # use ICDD colour descriptions
_refine_ls_shift/su_max          0.05
_refine_ls_shift/su_mean         0.00
_computing_structure_refinement  GSAS
_refine_ls_number_parameters     50
_refine_ls_goodness_of_fit_all   1.30
_refine_ls_number_restraints     36
_refine_ls_matrix_type           full

_refine_diff_density_max         0.396
_refine_diff_density_min         -0.427
#==============================================================================
# 7. CHEMICAL, STRUCTURAL AND CRYSTAL DATA

_pd_char_particle_morphology     ?

_chemical_name_systematic        
; ?
;
_chemical_name_common            ?
_chemical_formula_moiety         'C3 Mn N O4 P, 2.87(O)'
_chemical_formula_structural     ?
_chemical_formula_analytical     ?
_chemical_melting_point          ?
_chemical_compound_source        ? # for minerals and
# natural products
_symmetry_space_group_name_Hall  '-R 3'

_exptl_crystal_F_000             ?
_exptl_crystal_density_diffrn    1.616
_exptl_crystal_density_meas      1.846
_exptl_crystal_density_method    'He pycnometry'

_cell_measurement_temperature    298

_cell_special_details            
; ?
;

_geom_special_details            ?

# The following item identifies the program(s) used (if appropriate).
_computing_structure_solution    ?

#==============================================================================

# 8. Phase information from GSAS

_pd_phase_name                   'STA-12(Mn) As-Prepared'
_cell_length_a                   28.5814(10)
_cell_length_b                   28.5814
_cell_length_c                   6.4264(4)
_cell_angle_alpha                90.0
_cell_angle_beta                 90.0
_cell_angle_gamma                120.0
_cell_volume                     4546.4(4)
_symmetry_cell_setting           trigonal
_symmetry_space_group_name_H-M   'R -3'
loop_
_symmetry_equiv_pos_site_id
_symmetry_equiv_pos_as_xyz
1 +x,+y,+z
2 -y,x-y,+z
3 y-x,-x,+z
-1 -x,-y,-z
-2 +y,y-x,-z
-3 x-y,+x,-z
101 +x+1/3,+y+2/3,+z+2/3
102 -y+1/3,x-y+2/3,+z+2/3
103 y-x+1/3,-x+2/3,+z+2/3
-101 -x+2/3,-y+1/3,-z+1/3
-102 +y+2/3,y-x+1/3,-z+1/3
-103 x-y+2/3,+x+1/3,-z+1/3
201 +x+2/3,+y+1/3,+z+1/3
202 -y+2/3,x-y+1/3,+z+1/3
203 y-x+2/3,-x+1/3,+z+1/3
-201 -x+1/3,-y+2/3,-z+2/3
-202 +y+1/3,y-x+2/3,-z+2/3
-203 x-y+1/3,+x+2/3,-z+2/3

# ATOMIC COORDINATES AND DISPLACEMENT PARAMETERS


loop_
_atom_site_type_symbol
_atom_site_label
_atom_site_fract_x
_atom_site_fract_y
_atom_site_fract_z
_atom_site_occupancy
_atom_site_thermal_displace_type
_atom_site_U_iso_or_equiv
_atom_site_symmetry_multiplicity
Mn Mn1 0.30424(19) 0.03005(18) -0.2523(10) 1.0 Uiso 0.0111(10) 18
P P1 0.42130(5) 0.03487(5) -0.39633(22) 1.0 Uiso 0.0111(10) 18
O O1 0.46901(13) 0.08703(10) -0.4663(8) 1.0 Uiso 0.0111(10) 18
O O2 0.38994(8) 0.04880(10) -0.2461(4) 1.0 Uiso 0.0111(10) 18
O O3 0.38431(12) 0.00734(25) -0.57688(32) 1.0 Uiso 0.0111(10) 18
O O100 0.2222(5) 0.0036(6) -0.182(4) 1.0 Uiso 0.0505(10) 18
N N1 0.44672(6) -0.00669(5) -0.01566(21) 1.0 Uiso 0.0111(10) 18
C C1 0.44562(8) -0.00467(7) -0.25042(21) 1.0 Uiso 0.0111(10) 18
C C2 0.45550(5) -0.05243(5) 0.0604(4) 1.0 Uiso 0.0111(10) 18
C C3 0.49519(6) 0.04658(7) 0.0562(4) 1.0 Uiso 0.0111(10) 18
O O101 0.4194(7) -0.1474(5) -0.532(4) 1.0 Uiso 0.0587(11) 18
O O102 0.3522(7) -0.1838(4) -0.939(5) 0.828(12) Uiso 0.0587(11) 18
O O103 0.6064(11) 0.2417(7) 0.3572(18) 0.623(6) Uiso 0.0587(11) 18
O O104 0.35547(22) -0.27317(28) 0.0157(16) 0.418(5) Uiso 0.0587(11) 18

# If you change Z, be sure to change all 3 of the following
_chemical_formula_sum            'C3 Mn N O6.87 P'
_chemical_formula_weight         245.85
_cell_formula_units_Z            18

# MOLECULAR GEOMETRY

loop_
_geom_bond_atom_site_label_1
_geom_bond_atom_site_label_2
_geom_bond_distance
_geom_bond_site_symmetry_1
_geom_bond_site_symmetry_2
_geom_bond_publ_flag
Mn1 O2 2.231(6) . 1_555 N
Mn1 O2 2.187(7) . 102_544 N
Mn1 O3 2.265(7) . 102_545 N
Mn1 O3 2.139(6) . 203_555 N
Mn1 O100 2.120(14) . 1_555 N
Mn1 N1 2.328(5) . 102_544 N
P1 O1 1.5004(23) . 1_555 N
P1 O2 1.5005(25) . 1_555 N
P1 O3 1.5005(22) . 1_555 N
P1 C1 1.8510(23) . 1_555 N
O1 P1 1.5004(23) . 1_555 N
O2 Mn1 2.231(6) . 1_555 N
O2 Mn1 2.187(7) . 203_555 N
O2 P1 1.5005(25) . 1_555 N
O3 Mn1 2.139(6) . 102_544 N
O3 Mn1 2.265(7) . 203_554 N
O3 P1 1.5005(22) . 1_555 N
O100 Mn1 2.120(14) . 1_555 N
N1 Mn1 2.328(5) . 203_555 N
N1 C1 1.5107(17) . 1_555 N
N1 C2 1.5294(21) . 1_555 N
N1 C3 1.5302(16) . 1_555 N
C1 P1 1.8510(23) . 1_555 N
C1 N1 1.5107(17) . 1_555 N
C2 N1 1.5294(21) . 1_555 N
C2 C3 1.5297(22) . -1_655 N
C3 N1 1.5302(16) . 1_555 N
C3 C2 1.5297(22) . -1_655 N

loop_
_geom_angle_atom_site_label_1
_geom_angle_atom_site_label_2
_geom_angle_atom_site_label_3
_geom_angle
_geom_angle_site_symmetry_1
_geom_angle_site_symmetry_2
_geom_angle_site_symmetry_3
_geom_angle_publ_flag
O2 Mn1 O2 100.34(26) 1_555 . 102_544 N
O2 Mn1 O3 76.52(22) 1_555 . 102_545 N
O2 Mn1 O3 81.68(29) 1_555 . 203_555 N
O2 Mn1 O100 165.3(7) 1_555 . 1_555 N
O2 Mn1 N1 85.21(16) 1_555 . 102_544 N
O2 Mn1 O3 172.60(31) 102_544 . 102_545 N
O2 Mn1 O3 80.10(21) 102_544 . 203_555 N
O2 Mn1 O100 91.3(7) 102_544 . 1_555 N
O2 Mn1 N1 88.39(22) 102_544 . 102_544 N
O3 Mn1 O3 92.76(29) 102_545 . 203_555 N
O3 Mn1 O100 90.8(7) 102_545 . 1_555 N
O3 Mn1 N1 97.95(25) 102_545 . 102_544 N
O3 Mn1 O100 91.5(5) 203_555 . 1_555 N
O3 Mn1 N1 160.66(34) 203_555 . 102_544 N
O100 Mn1 N1 104.3(6) 1_555 . 102_544 N
O1 P1 O2 107.22(21) 1_555 . 1_555 N
O1 P1 O3 109.96(26) 1_555 . 1_555 N
O1 P1 C1 109.04(20) 1_555 . 1_555 N
O2 P1 O3 106.21(23) 1_555 . 1_555 N
O2 P1 C1 107.02(15) 1_555 . 1_555 N
O3 P1 C1 116.92(30) 1_555 . 1_555 N
Mn1 O2 Mn1 97.44(26) 1_555 . 203_555 N
Mn1 O2 P1 130.88(21) 1_555 . 1_555 N
Mn1 O2 P1 116.68(22) 203_555 . 1_555 N
Mn1 O3 Mn1 97.79(27) 102_544 . 203_554 N
Mn1 O3 P1 130.71(24) 102_544 . 1_555 N
Mn1 O3 P1 131.12(27) 203_554 . 1_555 N
Mn1 N1 C1 102.63(20) 203_555 . 1_555 N
Mn1 N1 C2 136.07(18) 203_555 . 1_555 N
Mn1 N1 C3 87.30(18) 203_555 . 1_555 N
C1 N1 C2 111.54(17) 1_555 . 1_555 N
C1 N1 C3 106.81(14) 1_555 . 1_555 N
C2 N1 C3 107.46(15) 1_555 . 1_555 N
P1 C1 N1 123.40(16) 1_555 . 1_555 N
N1 C2 C3 106.62(16) 1_555 . -1_655 N
N1 C3 C2 106.69(16) 1_555 . -1_655 N



# start Validation Reply Form
_vrf_PLAT306_STA12MN-AP          
;
PROBLEM: Isolated Oxygen Atom (H-atoms Missing ?) ....... O101
RESPONSE: Solvent water molecule in pore; powder data, H-atoms cannot be found
;
# end Validation Reply Form
