
#######################################################################
#
#                 Cambridge Crystallographic Data Centre
#                                CCDC
#
#######################################################################
#
# If this CIF has been generated from an entry in the Cambridge
# Structural Database, then it will include bibliographic, chemical,
# crystal, experimental, refinement or atomic coordinate data resulting
# from the CCDC's data processing and validation procedures.
#
#######################################################################

data_CSD_CIF_XICLEA
_audit_creation_date 2002-05-23
_audit_creation_method CSD-ConQuest-V1
_database_code_CSD XICLEA
_database_code_depnum_ccdc_archive 'CCDC 1296353'
_chemical_formula_sum 'H16 B12 O14 Rb2'
_chemical_formula_moiety
;
H12 B12 O12 2-,2(Rb1 1+),2(H2 O1)
;
_journal_coden_Cambridge 4
_journal_volume 123
_journal_year 2001
_journal_page_first 2182
_journal_name_full 'J.Am.Chem.Soc. '
loop_
_publ_author_name
"T.Peymann"
"C.B.Knobler"
"S.I.Khan"
"M.F.Hawthorne"
_chemical_name_systematic
;
Di-rubidium closo-dodecahydroxydodecaborate(0) dihydrate
;
_chemical_name_common
;
Teaching Subset: Fundamental Chemistry, Symmetry
;
_cell_volume   1574.037
_exptl_crystal_density_diffrn 2.282
_exptl_special_details
;
Structure forms a polymeric chain through rubidium-oxygen bonding; 
temperature given as 373 K
;
_diffrn_ambient_temperature ?
_diffrn_special_details
;
The study was carried out at room temperature,in the range 283-303K

;
#These two values have been output from a single CSD field.
_refine_ls_R_factor_gt 0.0341
_refine_ls_wR_factor_gt 0.0341
_symmetry_cell_setting monoclinic
_symmetry_space_group_name_H-M 'C 2/c'
_symmetry_Int_Tables_number 15
loop_
_symmetry_equiv_pos_site_id
_symmetry_equiv_pos_as_xyz
1 x,y,z
2 -x,y,1/2-z
3 1/2+x,1/2+y,z
4 1/2-x,1/2+y,1/2-z
5 -x,-y,-z
6 x,-y,-1/2+z
7 -1/2-x,-1/2-y,-z
8 -1/2+x,-1/2-y,-1/2+z
_cell_length_a 13.398(8)
_cell_length_b 9.186(5)
_cell_length_c 13.333(8)
_cell_angle_alpha 90
_cell_angle_beta 106.418(10)
_cell_angle_gamma 90
_cell_formula_units_Z 4
loop_
_atom_type_symbol
_atom_type_radius_bond
H 0.23
B 0.83
O 0.68
Rb 1.47
loop_
_atom_site_label
_atom_site_type_symbol
_atom_site_fract_x
_atom_site_fract_y
_atom_site_fract_z
Rb1 Rb 0.1411(1) -0.3609(1) 0.2922(1)
B1 B 0.0657(3) 0.1305(3) 0.3797(3)
O1 O 0.1216(2) 0.1353(2) 0.4902(2)
B2 B -0.0024(2) -0.0268(4) 0.3159(2)
O2 O -0.0045(2) -0.1666(2) 0.3647(2)
B3 B -0.0745(3) 0.1317(3) 0.3349(3)
O3 O -0.1400(2) 0.1268(2) 0.4046(2)
B4 B -0.0031(2) 0.2890(4) 0.3162(2)
O4 O -0.0039(2) 0.4265(2) 0.3682(2)
B5 B 0.1126(2) 0.2291(4) 0.2878(2)
O5 O 0.2074(2) 0.3141(2) 0.3175(2)
B6 B 0.1129(3) 0.0356(4) 0.2855(2)
O6 O 0.2084(2) -0.0450(2) 0.3185(2)
H1 H 0.12850 0.05220 0.51400
H2 H -0.04180 -0.15590 0.41170
H3 H -0.11960 0.17950 0.44560
H4 H -0.04190 0.42620 0.40740
H5 H 0.24060 0.30840 0.37410
H6 H 0.22900 -0.07440 0.26630
O7 O 0.1387(2) 0.5824(3) 0.5099(2)
H7 H 0.19300 0.54320 0.55510
H8 H 0.09110 0.53020 0.46240
B2A B 0.0024(2) -0.0268(4) 0.1841(2)
B1A B -0.0657(3) 0.1305(3) 0.1203(3)
O1A O -0.1216(2) 0.1353(2) 0.0098(2)
H1A H -0.12850 0.05220 -0.01400
B3A B 0.0745(3) 0.1317(3) 0.1651(3)
O2A O 0.0045(2) -0.1666(2) 0.1353(2)
H2A H 0.04180 -0.15590 0.08830
B6A B -0.1129(3) 0.0356(4) 0.2145(2)
B4A B 0.0031(2) 0.2890(4) 0.1838(2)
O3A O 0.1400(2) 0.1268(2) 0.0954(2)
H3A H 0.11960 0.17950 0.05440
B5A B -0.1126(2) 0.2291(4) 0.2122(2)
O4A O 0.0039(2) 0.4265(2) 0.1318(2)
H4A H 0.04190 0.42620 0.09260
O5A O -0.2074(2) 0.3141(2) 0.1825(2)
H5A H -0.24060 0.30840 0.12590
O6A O -0.2084(2) -0.0450(2) 0.1815(2)
H6A H -0.22900 -0.07440 0.23370
#END
