
#######################################################################
#
#                 Cambridge Crystallographic Data Centre
#                                CCDC
#
#######################################################################
#
# If this CIF has been generated from an entry in the Cambridge
# Structural Database, then it will include bibliographic, chemical,
# crystal, experimental, refinement or atomic coordinate data resulting
# from the CCDC's data processing and validation procedures.
#
#######################################################################

data_CSD_CIF_YASVAP
_audit_creation_date 1994-03-15
_audit_creation_method CSD-ConQuest-V1
_database_code_CSD YASVAP
_database_code_depnum_ccdc_archive 'CCDC 1299779'
_database_code_depnum_ccdc_fiz 'CSD 56751'
_chemical_formula_sum 'C12 Cl2 F10 Te1'
_chemical_formula_moiety
;
C12 Cl2 F10 Te1
;
_journal_coden_Cambridge 29
_journal_volume 619
_journal_year 1993
_journal_page_first 1269
_journal_name_full 'Z.Anorg.Allg.Chem. '
loop_
_publ_author_name
"D.Naumann"
"L.Ehmanns"
"K.-F.Tebbe"
"W.Crump"
_chemical_name_systematic
;
bis(Chloro-pentafluorophenyl)-tellurium
;
_chemical_name_common
;
Teaching Subset: Fundamental Chemistry, Symmetry
;
_cell_volume   1502.812
_exptl_crystal_colour 'colorless'
_exptl_special_details
;
Published dx 2.73; we calculate 2.35

;
_diffrn_ambient_temperature ?
_diffrn_special_details
;
The study was carried out at room temperature,in the range 283-303K

;
#These two values have been output from a single CSD field.
_refine_ls_R_factor_gt 0.023
_refine_ls_wR_factor_gt 0.023
_symmetry_cell_setting monoclinic
_symmetry_space_group_name_H-M 'P 21/c'
_symmetry_Int_Tables_number 14
loop_
_symmetry_equiv_pos_site_id
_symmetry_equiv_pos_as_xyz
1 x,y,z
2 -x,1/2+y,1/2-z
3 -x,-y,-z
4 x,-1/2-y,-1/2+z
_cell_length_a 6.495(1)
_cell_length_b 12.756(2)
_cell_length_c 18.162(5)
_cell_angle_alpha 90
_cell_angle_beta 92.89(2)
_cell_angle_gamma 90
_cell_formula_units_Z 4
loop_
_atom_type_symbol
_atom_type_radius_bond
C 0.68
Cl 0.99
F 0.64
Te 1.47
loop_
_atom_site_label
_atom_site_type_symbol
_atom_site_fract_x
_atom_site_fract_y
_atom_site_fract_z
Te1 Te 0.74358(4) 0.11348(2) 0.00330(1)
Cl1 Cl 1.06777(16) 0.10837(9) 0.08193(6)
Cl2 Cl 0.42009(15) 0.13425(8) -0.07362(6)
C1 C 0.8891(5) 0.2219(3) -0.0655(2)
C2 C 0.9818(6) 0.3134(3) -0.0408(2)
C3 C 1.0716(6) 0.3821(3) -0.0882(3)
C4 C 1.0691(7) 0.3592(3) -0.1622(3)
C5 C 0.9849(7) 0.2683(4) -0.1878(2)
C6 C 0.8930(6) 0.2003(3) -0.1400(2)
C7 C 0.6145(5) 0.2176(3) 0.0799(2)
C8 C 0.5940(6) 0.1815(3) 0.1507(2)
C9 C 0.5055(7) 0.2420(3) 0.2032(2)
C10 C 0.4327(7) 0.3387(3) 0.1852(2)
C11 C 0.4482(6) 0.3767(3) 0.1149(3)
C12 C 0.5380(6) 0.3158(3) 0.0629(2)
F1 F 0.9887(4) 0.3368(2) 0.0311(1)
F2 F 1.1612(4) 0.4697(2) -0.0622(2)
F3 F 1.1517(4) 0.4262(2) -0.2083(2)
F4 F 0.9860(5) 0.2436(3) -0.2596(1)
F5 F 0.8101(4) 0.1114(2) -0.1671(1)
F6 F 0.6615(4) 0.0860(2) 0.1697(1)
F7 F 0.4937(4) 0.2055(2) 0.2722(1)
F8 F 0.3475(4) 0.3987(2) 0.2355(2)
F9 F 0.3762(4) 0.4721(2) 0.0978(2)
F10 F 0.5496(4) 0.3548(2) -0.0050(1)
#END
