####################################################################### 
# 
# This file contains crystal structure data downloaded from the 
# Cambridge Structural Database (CSD) hosted by the Cambridge 
# Crystallographic Data Centre (CCDC).
# 
# Full information about CCDC data access policies and citation 
# guidelines are available at http://www.ccdc.cam.ac.uk/access/V1 
# 
# Audit and citation data items may have been added by the CCDC. 
# Please retain this information to preserve the provenance of 
# this file and to allow appropriate attribution of the data. 
# 
#######################################################################

data_TEST_publ
_audit_block_doi                 10.5517/ccn7x0s
_database_code_depnum_ccdc_archive 'CCDC 603415'
loop_
_citation_id
_citation_doi
_citation_year
1 10.1039/b605400e 2006
_audit_update_record             
;
2006-03-31 deposited with the CCDC.	2024-07-14 downloaded from the CCDC.
;

_pd_block_id                     2006-06-08T14:27|TEST|SJW|stoe

_audit_creation_method           'from EXP file using GSAS2CIF'
_audit_creation_date             2006-06-08T14:27

#=============================================================================
# this information describes the project, paper etc. for the CIF
#
# Acta Cryst. Section C papers and editorial correspondence is generated
#
# from the information in this section
#
#
#
# (from) CIF submission form for Rietveld refinements (Acta Cryst. C)
#
# Version 14 December 1998
#
#=============================================================================

#=============================================================================
# 5. OVERALL REFINEMENT & COMPUTING DETAILS

_refine_special_details          
; ?
;
_pd_proc_ls_special_details      
; ?
;

# The following items are used to identify the programs used.
_computing_molecular_graphics    ?
_computing_publication_material  ?

_refine_ls_weighting_scheme      ?
_refine_ls_weighting_details     ?
_refine_ls_hydrogen_treatment    ?
_refine_ls_extinction_method     ?
_refine_ls_extinction_coef       ?
_refine_ls_number_constraints    ?

_refine_ls_restrained_S_all      ?
_refine_ls_restrained_S_obs      ?

#==============================================================================
# 6. SAMPLE PREPARATION DATA

# (In the unusual case where multiple samples are used in a single
# Rietveld study, this information should be moved into the phase
# blocks)

# The following three fields describe the preparation of the material.
# The cooling rate is in K/min. The pressure at which the sample was
# prepared is in kPa. The temperature of preparation is in K.

_pd_prep_cool_rate               ?
_pd_prep_pressure                ?
_pd_prep_temperature             ?

_pd_char_colour                  ? # use ICDD colour descriptions
_refine_ls_shift/su_max          0.02
_refine_ls_shift/su_mean         0.01
_computing_structure_refinement  GSAS
_refine_ls_number_parameters     42
_refine_ls_goodness_of_fit_all   2.60
_refine_ls_number_restraints     29
_refine_ls_matrix_type           full
#==============================================================================
# 7. CHEMICAL, STRUCTURAL AND CRYSTAL DATA

_pd_char_particle_morphology     ?

_chemical_name_systematic        
; ?
;
_chemical_name_common            JAGNipip
_chemical_formula_moiety         ?
_chemical_formula_structural     ?
_chemical_formula_analytical     ?
_chemical_melting_point          ?
_chemical_compound_source        ? # for minerals and
# natural products
_symmetry_space_group_name_Hall  ?

_exptl_crystal_F_000             ?
_exptl_crystal_density_diffrn    ?
_exptl_crystal_density_meas      ?
_exptl_crystal_density_method    ?

_cell_measurement_temperature    ?

_cell_special_details            
; ?
;

_geom_special_details            ?

# The following item identifies the program(s) used (if appropriate).
_computing_structure_solution    ?

#==============================================================================

# 8. Phase information from GSAS

_pd_phase_name                   JAGNipip
_cell_length_a                   27.9486(4)
_cell_length_b                   27.9486
_cell_length_c                   6.23018(14)
_cell_angle_alpha                90.0
_cell_angle_beta                 90.0
_cell_angle_gamma                120.0
_cell_volume                     4214.6(1)
_symmetry_cell_setting           trigonal
_symmetry_space_group_name_H-M   'R -3'
loop_
_symmetry_equiv_pos_site_id
_symmetry_equiv_pos_as_xyz
1 +x,+y,+z
2 -y,x-y,+z
3 y-x,-x,+z
-1 -x,-y,-z
-2 +y,y-x,-z
-3 x-y,+x,-z
101 +x+1/3,+y+2/3,+z+2/3
102 -y+1/3,x-y+2/3,+z+2/3
103 y-x+1/3,-x+2/3,+z+2/3
-101 -x+2/3,-y+1/3,-z+1/3
-102 +y+2/3,y-x+1/3,-z+1/3
-103 x-y+2/3,+x+1/3,-z+1/3
201 +x+2/3,+y+1/3,+z+1/3
202 -y+2/3,x-y+1/3,+z+1/3
203 y-x+2/3,-x+1/3,+z+1/3
-201 -x+1/3,-y+2/3,-z+2/3
-202 +y+1/3,y-x+2/3,-z+2/3
-203 x-y+1/3,+x+2/3,-z+2/3

# ATOMIC COORDINATES AND DISPLACEMENT PARAMETERS


loop_
_atom_site_type_symbol
_atom_site_label
_atom_site_fract_x
_atom_site_fract_y
_atom_site_fract_z
_atom_site_occupancy
_atom_site_thermal_displace_type
_atom_site_U_iso_or_equiv
_atom_site_symmetry_multiplicity
NI Ni1 0.63786(19) 0.02840(21) 0.0517(7) 1.0 Uiso 0.0053(4) 18
P P1 0.61355(32) 0.03959(32) -0.4271(13) 1.0 Uiso 0.0053(4) 18
O O1 0.6141(6) 0.0947(5) -0.4815(23) 1.0 Uiso 0.0053(4) 18
O O2 0.6306(7) 0.0104(6) -0.6308(26) 1.0 Uiso 0.0053(4) 18
O O3 0.6611(6) 0.0472(7) -0.2712(25) 1.0 Uiso 0.0053(4) 18
O O4 0.6566(5) 0.1098(6) 0.1253(24) 1.0 Uiso 0.0053(4) 18
N N1 0.5567(9) 0.0062(8) -0.0294(31) 1.0 Uiso 0.0053(4) 18
C C3 0.5437(9) 0.0568(9) -0.014(4) 1.0 Uiso 0.0053(4) 18
C C2 0.5180(10) -0.0387(9) 0.084(4) 1.0 Uiso 0.0053(4) 18
O O5 0.1950(6) 0.0835(6) 0.1743(27) 0.9 Uiso 0.0053(4) 18
O O6 0.0375(6) 0.0745(6) 0.1830(26) 0.9 Uiso 0.0053(4) 18
O O7 0.1422(7) 0.1488(6) 0.4453(25) 0.9 Uiso 0.0053(4) 18
C C1 0.5468(11) -0.0115(8) -0.2700(32) 1.0 Uiso 0.0053(4) 18

# If you change Z, be sure to change all 3 of the following
_chemical_formula_sum            'C3 N Ni O6.70 P'
_chemical_formula_weight         246.90
_cell_formula_units_Z            18

# MOLECULAR GEOMETRY

loop_
_geom_bond_atom_site_label_1
_geom_bond_atom_site_label_2
_geom_bond_distance
_geom_bond_site_symmetry_1
_geom_bond_site_symmetry_2
_geom_bond_publ_flag
Ni1 O2 2.026(17) . 1_556 N
Ni1 O2 2.008(15) . 103_655 N
Ni1 O3 2.098(17) . 1_555 N
Ni1 O3 2.061(15) . 202_545 N
Ni1 O4 2.114(16) . 1_555 N
Ni1 N1 2.093(20) . 1_555 N
P1 O1 1.568(13) . 1_555 N
P1 O2 1.701(16) . 1_555 N
P1 O3 1.573(14) . 1_555 N
P1 C1 1.952(25) . 1_555 N
N1 C3 1.628(22) . 1_555 N
N1 C2 1.373(25) . 1_555 N
N1 C1 1.559(22) . 1_555 N
C2 C3 1.596(26) . -1_655 N


loop_
_geom_angle_atom_site_label_1
_geom_angle_atom_site_label_2
_geom_angle_atom_site_label_3
_geom_angle
_geom_angle_site_symmetry_1
_geom_angle_site_symmetry_2
_geom_angle_site_symmetry_3
_geom_angle_publ_flag
O2 Ni1 O2 92.5(7) 1_556 . 103_655 N
O2 Ni1 O3 168.0(7) 1_556 . 1_555 N
O2 Ni1 O3 75.9(7) 1_556 . 202_545 N
O2 Ni1 O4 89.7(6) 1_556 . 1_555 N
O2 Ni1 N1 101.7(7) 1_556 . 1_555 N
O2 Ni1 O3 75.5(6) 103_655 . 1_555 N
O2 Ni1 O3 77.9(6) 103_655 . 202_545 N
O2 Ni1 O4 102.3(7) 103_655 . 1_555 N
O2 Ni1 N1 160.5(8) 103_655 . 1_555 N
O3 Ni1 O3 100.5(7) 1_555 . 202_545 N
O3 Ni1 O4 93.4(6) 1_555 . 1_555 N
O3 Ni1 N1 89.8(6) 1_555 . 1_555 N
O3 Ni1 O4 165.6(7) 202_545 . 1_555 N
O3 Ni1 N1 92.5(7) 202_545 . 1_555 N
O4 Ni1 N1 91.2(6) 1_555 . 1_555 N
O1 P1 O2 116.2(9) 1_555 . 1_555 N
O1 P1 O3 114.0(10) 1_555 . 1_555 N
O1 P1 C1 111.3(10) 1_555 . 1_555 N
O2 P1 O3 96.0(8) 1_555 . 1_555 N
O2 P1 C1 114.7(10) 1_555 . 1_555 N
O3 P1 C1 102.9(11) 1_555 . 1_555 N
Ni1 O2 Ni1 103.7(8) 1_554 . 202_544 N
Ni1 O2 P1 128.8(9) 1_554 . 1_555 N
Ni1 O2 P1 127.0(10) 202_544 . 1_555 N
Ni1 O3 Ni1 99.4(8) 1_555 . 103_654 N
Ni1 O3 P1 115.0(9) 1_555 . 1_555 N
Ni1 O3 P1 135.6(9) 103_654 . 1_555 N
Ni1 N1 C3 114.1(15) 1_555 . 1_555 N
Ni1 N1 C2 112.8(17) 1_555 . 1_555 N
Ni1 N1 C1 108.6(16) 1_555 . 1_555 N
C3 N1 C2 110.4(19) 1_555 . 1_555 N
C3 N1 C1 104.5(18) 1_555 . 1_555 N
C2 N1 C1 105.7(21) 1_555 . 1_555 N
N1 C3 C2 112.6(16) 1_555 . -1_655 N
N1 C2 C3 112.4(22) 1_555 . -1_655 N
P1 C1 N1 107.4(16) 1_555 . 1_555 N

# Powder diffraction data for histogram 3
#==============================================================================
# 9. INSTRUMENT CHARACTERIZATION

_exptl_special_details           
; ?
;

# if regions of the data are excluded, the reason(s) are supplied here:
_pd_proc_info_excluded_regions   
; ?
;

# The following item is used to identify the equipment used to record
# the powder pattern when the diffractogram was measured at a laboratory
# other than the authors' home institution, e.g. when neutron or synchrotron
# radiation is used.

_pd_instr_location               
; ?
;
_pd_calibration_special_details  
# description of the method used
# to calibrate the instrument
; ?
;

_diffrn_ambient_temperature      293
_diffrn_source                   ?
_diffrn_source_target            ?
_diffrn_source_type              ?
_diffrn_measurement_device_type  ?
_diffrn_detector                 ?
_diffrn_detector_type            ? # make or model of detector

_pd_meas_scan_method             ? # options are 'step', 'cont',
# 'tof', 'fixed' or
# 'disp' (= dispersive)
_pd_meas_special_details         
; ?
;

# The following two items identify the program(s) used (if appropriate).
_computing_data_collection       ?
_computing_data_reduction        ?

# Describe any processing performed on the data, prior to refinement.
# For example: a manual Lp correction or a precomputed absorption correction
_pd_proc_info_data_reduction     ?

# The following item is used for angular dispersive measurements only.

_diffrn_radiation_monochromator  ?

# The following items are used to define the size of the instrument.
# Not all distances are appropriate for all instrument types.

_pd_instr_dist_src/mono          ?
_pd_instr_dist_mono/spec         ?
_pd_instr_dist_src/spec          ?
_pd_instr_dist_spec/anal         ?
_pd_instr_dist_anal/detc         ?
_pd_instr_dist_spec/detc         ?

# 10. Specimen size and mounting information

# The next three fields give the specimen dimensions in mm. The equatorial
# plane contains the incident and diffracted beam.

_pd_spec_size_axial              ? # perpendicular to
# equatorial plane

_pd_spec_size_equat              ? # parallel to
# scattering vector
# in transmission

_pd_spec_size_thick              ? # parallel to
# scattering vector
# in reflection

_pd_spec_mounting                
# This field should be
# used to give details of the
# container.
; ?
;

_pd_spec_mount_mode              ? # options are 'reflection'
# or 'transmission'

_pd_spec_shape                   ? # options are 'cylinder'
# 'flat_sheet' or 'irregular'


loop_
_atom_type_symbol
_atom_type_number_in_cell
_atom_type_scat_dispersion_real
_atom_type_scat_dispersion_imag
_atom_type_scat_Cromer_Mann_a1
_atom_type_scat_Cromer_Mann_a2
_atom_type_scat_Cromer_Mann_a3
_atom_type_scat_Cromer_Mann_a4
_atom_type_scat_Cromer_Mann_b1
_atom_type_scat_Cromer_Mann_b2
_atom_type_scat_Cromer_Mann_b3
_atom_type_scat_Cromer_Mann_b4
_atom_type_scat_Cromer_Mann_c
_atom_type_scat_source
NI 18.0 -2.956 0.509 12.8376 3.87850 7.29200 0.25650 4.44380 12.1763 2.38000
66.3421 1.03410 International_Tables_Vol_C
P 18.0 0.283 0.434 6.43450 1.90670 4.17910 27.1570 1.78000 0.52600 1.49080
68.1645 1.11490 International_Tables_Vol_C
O 120.6 0.047 0.032 3.04850 13.2771 2.28680 5.70110 1.54630 0.32390 0.86700
32.9089 0.25080 International_Tables_Vol_C
N 18.0 0.029 0.018 12.2126 0.00570 3.13220 9.89330 2.01250 28.9975 1.16630
0.58260 -11.529 International_Tables_Vol_C
C 54.0 0.017 0.009 2.31000 20.8439 1.02000 10.2075 1.58860 0.56870 0.86500
51.6512 0.21560 International_Tables_Vol_C
_diffrn_radiation_probe          x-ray
_diffrn_radiation_polarisn_ratio 0.55
_diffrn_radiation_wavelength     1.54056
_diffrn_radiation_type           'Cu K alpha'
_pd_proc_ls_prof_R_factor        0.0462
_pd_proc_ls_prof_wR_factor       0.0611
_pd_proc_ls_prof_wR_expected     0.0236
_refine_ls_R_Fsqd_factor         0.11501

_pd_proc_ls_background_function  
; GSAS Background function number 2 with 28 terms.
Cosine Fourier series
1: 743370. 2: -1.170840E+06 3: 424121. 4: 290869.
5: -567785. 6: 412985. 7: -201653. 8: 205690.
9: -260927. 10: 43584.3 11: 409876. 12: -693958.
13: 546492. 14: -170170. 15: -53434.2 16: 12816.0
17: 102760. 18: -117772. 19: 56594.6 20: -22906.4
21: 38371.9 22: -50420.2 23: 30363.6 24: -812.482
25: -11969.1 26: 8464.28 27: -2418.32 28: 55.4500
;

_exptl_absorpt_process_details   
; GSAS Absorption/surface roughness correction: function number 0
Debye-Scherrer absorption correction
Term (= MU.r/wave) = 0.73000
Correction is not refined.
;
_exptl_absorpt_correction_T_min  0.16219
_exptl_absorpt_correction_T_max  0.20608
# Extinction correction
_gsas_exptl_extinct_corr_T_min   1.00000
_gsas_exptl_extinct_corr_T_max   1.00000

_pd_proc_ls_profile_function     
;
CW Profile function number 3 with 19 terms
Pseudovoigt profile coefficients as parameterized in
P. Thompson, D.E. Cox & J.B. Hastings (1987). J. Appl. Cryst.,20,79-83.
Asymmetry correction of L.W. Finger, D.E. Cox & A. P. Jephcoat (1994).
J. Appl. Cryst.,27,892-900.
#1(GU) = 104.716 #2(GV) = -27.591 #3(GW) = 15.804
#4(GP) = 5.489 #5(LX) = 3.855 #6(LY) = 15.598
#7(S/L) = 0.0253 #8(H/L) = 0.0194
#9(trns) = 4.04 #10(shft)= -1.6170
#11(stec)= -12.91 #12(ptec)= 2.94 #13(sfec)= 0.00
#14(L11) = -0.005 #15(L22) = -0.069 #16(L33) = -0.197
#17(L12) = -0.010 #18(L13) = -0.008 #19(L23) = 0.005
Peak tails are ignored where the intensity is below 0.0100 times the peak
Aniso. broadening axis 0.0 0.0 1.0
;
_pd_proc_ls_peak_cutoff          0.01000
_pd_proc_info_datetime           2006-06-08T14:27:35
_pd_calc_method                  'Rietveld Refinement'




