####################################################################### 
# 
# This file contains crystal structure data downloaded from the 
# Cambridge Structural Database (CSD) hosted by the Cambridge 
# Crystallographic Data Centre (CCDC).
# 
# Full information about CCDC data access policies and citation 
# guidelines are available at http://www.ccdc.cam.ac.uk/access/V1 
# 
# Audit and citation data items may have been added by the CCDC. 
# Please retain this information to preserve the provenance of 
# this file and to allow appropriate attribution of the data. 
# 
#######################################################################

data_YIZWUZ
#This CIF has been generated from an entry in the Cambridge Structural Database
_database_code_depnum_ccdc_archive 'CCDC 1304222'
_database_code_CSD               YIZWUZ
_audit_creation_method           'Created from the CSD'
_audit_update_record             
;
2024-07-14 downloaded from the CCDC.
;
_database_code_NBS               654156
_chemical_formula_moiety         
'(C6 Cr1 Na1 O12 2-)n,n(H12 Mg1 O6 2+),4n(H2 O1)'
_chemical_name_systematic        
'catena-(tris(\m~2~-Oxalato)-chromium(iii)-sodium hexa-aqua-magnesium tetrahydrate)'
_chemical_absolute_configuration unk
_diffrn_ambient_temperature      295
_exptl_crystal_density_diffrn    1.734
#These two values have been output from a single CSD field.
_refine_ls_R_factor_gt           0.084
_refine_ls_wR_factor_gt          0.084
_diffrn_radiation_probe          x-ray
_symmetry_cell_setting           trigonal
_symmetry_space_group_name_H-M   'P -3 c 1'
_symmetry_Int_Tables_number      165
_space_group_name_Hall           '-P 3 2"c'
loop_
_symmetry_equiv_pos_site_id
_symmetry_equiv_pos_as_xyz
1 x,y,z
2 -y,x-y,z
3 y,x,1/2-z
4 -x+y,-x,z
5 -x,-x+y,1/2-z
6 x-y,-y,1/2-z
7 -x,-y,-z
8 y,-x+y,-z
9 -y,-x,1/2+z
10 x-y,x,-z
11 x,x-y,1/2+z
12 -x+y,y,1/2+z
_cell_length_a                   16.969(3)
_cell_length_b                   16.969(3)
_cell_length_c                   12.521(3)
_cell_angle_alpha                90
_cell_angle_beta                 90
_cell_angle_gamma                120
_cell_volume                     3122.35
_exptl_crystal_colour            'dark blue'
_cell_formula_units_Z            6
loop_
_atom_site_label
_atom_site_type_symbol
_atom_site_fract_x
_atom_site_fract_y
_atom_site_fract_z
Cr1 Cr 0.0000 -0.3401(1) 0.2500
Na1 Na -0.3246(6) -0.3246 0.2500
O1 O -0.1142(5) -0.3911(5) 0.3328(6)
O2 O -0.0594(5) -0.2882(5) 0.1624(6)
O3 O 0.0476(6) -0.4041(5) 0.3377(6)
O4 O -0.1851(5) -0.2777(6) 0.1588(7)
O5 O -0.2382(6) -0.3758(6) 0.3455(7)
O6 O 0.0585(5) -0.5295(6) 0.3372(7)
C1 C -0.1371(8) -0.3049(8) 0.1974(11)
C2 C -0.1692(8) -0.3641(9) 0.3021(11)
C3 C 0.0314(8) -0.4815(7) 0.2988(10)
O1D O 0.1142(5) -0.2769(7) 0.1672(6)
O2D O 0.0594(5) -0.2288(7) 0.3376(6)
O3D O -0.0476(6) -0.4517(8) 0.1623(6)
O4B O -0.2777(6) -0.1851(5) 0.3412(7)
O5B O -0.3758(6) -0.2382(6) 0.1545(7)
O6E O -0.4120(8) -0.4705(6) 0.1628(7)
O6A O -0.4705(6) -0.4120(8) 0.3372(7)
C3D C -0.0314(8) -0.5129(11) 0.2012(10)
C2D C 0.1692(8) -0.1949(12) 0.1979(11)
C1D C 0.1371(8) -0.1678(11) 0.3026(11)
Na1C Na 0.0000(6) -0.6754(6) 0.2500
O6D O -0.0585(5) -0.5880(8) 0.1628(7)
O5D O 0.2382(6) -0.1376(8) 0.1545(7)
O4D O 0.1851(5) -0.0926(8) 0.3412(7)
Na1A Na 0.3246 0.0000(6) 0.2500
Mg1 Mg 0.0000 0.0000 -0.2500
O7 O -0.0567(12) -0.1136(13) -0.1538(13)
O7A O 0.1136(13) 0.0569(18) -0.1538(13)
O7B O -0.1136(13) -0.0567(12) -0.3462(13)
O7C O -0.0569(18) 0.0567(12) -0.1538(13)
O7D O 0.0567(12) -0.0569(18) -0.3462(13)
O7E O 0.0569(18) 0.1136(13) -0.3462(13)
Mg2 Mg -0.3333 -0.6667 0.2572
O9 O -0.2508(5) -0.6957(5) 0.1586(6)
O10 O -0.3621(5) -0.7778(5) 0.3500(6)
O9A O -0.3043(5) -0.5551(7) 0.1586(6)
O9C O -0.4449(7) -0.7492(5) 0.1586(6)
O10A O -0.2222(5) -0.5843(7) 0.3500(6)
O10C O -0.4157(7) -0.6379(5) 0.3500(6)
O8 O -0.1598(12) -0.1690(12) -0.0047(15)
O11 O -0.3289(5) -0.8246(4) 0.0008(6)

#END
