####################################################################### 
# 
# This file contains crystal structure data downloaded from the 
# Cambridge Structural Database (CSD) hosted by the Cambridge 
# Crystallographic Data Centre (CCDC).
# 
# Full information about CCDC data access policies and citation 
# guidelines are available at http://www.ccdc.cam.ac.uk/access/V1 
# 
# Audit and citation data items may have been added by the CCDC. 
# Please retain this information to preserve the provenance of 
# this file and to allow appropriate attribution of the data. 
# 
#######################################################################

data_mm
_audit_block_doi                 10.5517/cc113qxs
_database_code_depnum_ccdc_archive 'CCDC 956905'
loop_
_citation_id
_citation_doi
_citation_year
1 10.1002/chem.201304480 2014
_audit_update_record             
;
2013-08-21 deposited with the CCDC.	2024-07-14 downloaded from the CCDC.
;

_audit_creation_method           SHELXL-97
_chemical_name_systematic        
;
 ?
;
_chemical_name_common            ?
_chemical_melting_point          ?
_chemical_formula_moiety         ?
_chemical_formula_sum            'C8 N22 Zn2.33'
_chemical_formula_weight         556.83

loop_
_atom_type_symbol
_atom_type_description
_atom_type_scat_dispersion_real
_atom_type_scat_dispersion_imag
_atom_type_scat_source
C C 0.0033 0.0016 'International Tables Vol C Tables 4.2.6.8 and 6.1.1.4'
N N 0.0061 0.0033 'International Tables Vol C Tables 4.2.6.8 and 6.1.1.4'
Zn Zn 0.2839 1.4301 'International Tables Vol C Tables 4.2.6.8 and 6.1.1.4'

_symmetry_cell_setting           ?
_symmetry_space_group_name_H-M   ?

loop_
_symmetry_equiv_pos_as_xyz
'x, y, z'
'-x, -y, z'
'x, -y, -z'
'-x, y, -z'
'z, x, y'
'y, z, x'
'-z, -x, y'
'-y, z, -x'
'z, -x, -y'
'-y, -z, x'
'-z, x, -y'
'y, -z, -x'
'y, x, z'
'-y, -x, z'
'-y, x, -z'
'y, -x, -z'
'x, z, y'
'z, y, x'
'-x, -z, y'
'z, -y, -x'
'-x, z, -y'
'-z, -y, x'
'x, -z, -y'
'-z, y, -x'
'x+1/2, y+1/2, z+1/2'
'-x+1/2, -y+1/2, z+1/2'
'x+1/2, -y+1/2, -z+1/2'
'-x+1/2, y+1/2, -z+1/2'
'z+1/2, x+1/2, y+1/2'
'y+1/2, z+1/2, x+1/2'
'-z+1/2, -x+1/2, y+1/2'
'-y+1/2, z+1/2, -x+1/2'
'z+1/2, -x+1/2, -y+1/2'
'-y+1/2, -z+1/2, x+1/2'
'-z+1/2, x+1/2, -y+1/2'
'y+1/2, -z+1/2, -x+1/2'
'y+1/2, x+1/2, z+1/2'
'-y+1/2, -x+1/2, z+1/2'
'-y+1/2, x+1/2, -z+1/2'
'y+1/2, -x+1/2, -z+1/2'
'x+1/2, z+1/2, y+1/2'
'z+1/2, y+1/2, x+1/2'
'-x+1/2, -z+1/2, y+1/2'
'z+1/2, -y+1/2, -x+1/2'
'-x+1/2, z+1/2, -y+1/2'
'-z+1/2, -y+1/2, x+1/2'
'x+1/2, -z+1/2, -y+1/2'
'-z+1/2, y+1/2, -x+1/2'

_cell_length_a                   30.502(5)
_cell_length_b                   30.502(5)
_cell_length_c                   30.502(5)
_cell_angle_alpha                90.000(5)
_cell_angle_beta                 90.000(5)
_cell_angle_gamma                90.000(5)
_cell_volume                     28378(8)
_cell_formula_units_Z            24
_cell_measurement_temperature    293(2)
_cell_measurement_reflns_used    ?
_cell_measurement_theta_min      ?
_cell_measurement_theta_max      ?

_exptl_crystal_description       ?
_exptl_crystal_colour            ?
_exptl_crystal_size_max          ?
_exptl_crystal_size_mid          ?
_exptl_crystal_size_min          ?
_exptl_crystal_density_meas      ?
_exptl_crystal_density_diffrn    0.782
_exptl_crystal_density_method    'not measured'
_exptl_crystal_F_000             6528
_exptl_absorpt_coefficient_mu    1.201
_exptl_absorpt_correction_type   ?
_exptl_absorpt_correction_T_min  ?
_exptl_absorpt_correction_T_max  ?
_exptl_absorpt_process_details   ?

_exptl_special_details           
;
 ?
;

_diffrn_ambient_temperature      293(2)
_diffrn_radiation_wavelength     0.71069
_diffrn_radiation_type           MoK\a
_diffrn_radiation_source         'fine-focus sealed tube'
_diffrn_radiation_monochromator  graphite
_diffrn_measurement_device_type  ?
_diffrn_measurement_method       ?
_diffrn_detector_area_resol_mean ?
_diffrn_standards_number         ?
_diffrn_standards_interval_count ?
_diffrn_standards_interval_time  ?
_diffrn_standards_decay_%        ?
_diffrn_reflns_number            74649
_diffrn_reflns_av_R_equivalents  0.2070
_diffrn_reflns_av_sigmaI/netI    0.0827
_diffrn_reflns_limit_h_min       -36
_diffrn_reflns_limit_h_max       36
_diffrn_reflns_limit_k_min       -36
_diffrn_reflns_limit_k_max       33
_diffrn_reflns_limit_l_min       -36
_diffrn_reflns_limit_l_max       28
_diffrn_reflns_theta_min         1.89
_diffrn_reflns_theta_max         25.14
_reflns_number_total             4619
_reflns_number_gt                2670
_reflns_threshold_expression     >2\s(I)

_computing_data_collection       ?
_computing_cell_refinement       ?
_computing_data_reduction        ?
_computing_structure_solution    ?
_computing_structure_refinement  'SHELXL-97 (Sheldrick, 2008)'
_computing_molecular_graphics    ?
_computing_publication_material  ?

_refine_special_details          
;
 Refinement of F^2^ against ALL reflections.  The weighted R-factor wR and
 goodness of fit S are based on F^2^, conventional R-factors R are based
 on F, with F set to zero for negative F^2^. The threshold expression of
 F^2^ > 2\s(F^2^) is used only for calculating R-factors(gt) etc. and is
 not relevant to the choice of reflections for refinement.  R-factors based
 on F^2^ are statistically about twice as large as those based on F, and R-
 factors based on ALL data will be even larger.
;

_refine_ls_structure_factor_coef Fsqd
_refine_ls_matrix_type           full
_refine_ls_weighting_scheme      calc
_refine_ls_weighting_details     
'calc w=1/[\s^2^(Fo^2^)+(0.0603P)^2^+0.0000P] where P=(Fo^2^+2Fc^2^)/3'
_atom_sites_solution_primary     direct
_atom_sites_solution_secondary   difmap
_atom_sites_solution_hydrogens   geom
_refine_ls_hydrogen_treatment    mixed
_refine_ls_extinction_method     none
_refine_ls_extinction_coef       ?
_refine_ls_abs_structure_details 'Flack H D (1983), Acta Cryst. A39, 876-881'
_refine_ls_abs_structure_Flack   0.00
_refine_ls_number_reflns         4619
_refine_ls_number_parameters     175
_refine_ls_number_restraints     24
_refine_ls_R_factor_all          0.1029
_refine_ls_R_factor_gt           0.0590
_refine_ls_wR_factor_ref         0.1379
_refine_ls_wR_factor_gt          0.1275
_refine_ls_goodness_of_fit_ref   1.003
_refine_ls_restrained_S_all      1.020
_refine_ls_shift/su_max          0.025
_refine_ls_shift/su_mean         0.003

loop_
_atom_site_label
_atom_site_type_symbol
_atom_site_fract_x
_atom_site_fract_y
_atom_site_fract_z
_atom_site_U_iso_or_equiv
_atom_site_adp_type
_atom_site_occupancy
_atom_site_symmetry_multiplicity
_atom_site_calc_flag
_atom_site_refinement_flags
_atom_site_disorder_assembly
_atom_site_disorder_group
Zn1 Zn 0.71548(2) 0.28452(2) 0.28452(2) 0.0522(3) Uani 1 6 d S . .
Zn2 Zn 0.65417(3) 0.20001(2) 0.20001(2) 0.0799(3) Uani 1 2 d S . .
Zn3 Zn 0.46982(3) 0.24626(3) 0.24626(3) 0.1022(4) Uani 1 2 d S . .
N2 N 0.6466(2) 0.27984(14) 0.27984(14) 0.0702(16) Uani 1 2 d S . .
N1 N 0.63002(18) 0.25122(13) 0.25122(13) 0.0661(15) Uani 1 2 d S . .
C2 C 0.5773(2) 0.28399(19) 0.28399(19) 0.082(2) Uani 1 2 d S . .
N3 N 0.61511(19) 0.29986(14) 0.29986(14) 0.0696(17) Uani 1 2 d S . .
C1 C 0.5867(2) 0.25382(18) 0.25382(18) 0.0649(19) Uani 1 2 d S . .
N13 N 0.69982(15) 0.18350(14) 0.25175(16) 0.0790(13) Uani 1 1 d . . .
N4 N 0.5876(2) 0.19826(18) 0.19826(18) 0.094(2) Uani 1 2 d S . .
N12 N 0.72094(16) 0.2091(2) 0.27906(16) 0.0826(19) Uani 1 2 d S . .
C6 C 0.6946(2) 0.11127(18) 0.2259(2) 0.0784(17) Uani 1 1 d . . .
N16 N 0.6759(3) 0.0545(2) 0.1897(2) 0.139(2) Uani 1 1 d . . .
C5 C 0.71305(17) 0.14229(16) 0.25507(18) 0.0756(16) Uani 1 1 d . . .
C4 C 0.5367(3) 0.3002(2) 0.3002(2) 0.118(3) Uani 1 2 d S . .
N7 N 0.5210(2) 0.21806(18) 0.21806(18) 0.097(2) Uani 1 2 d S . .
N11 N 0.4956(2) 0.2881(2) 0.2881(2) 0.118(3) Uani 1 2 d SU . .
C3 C 0.5627(2) 0.22424(19) 0.22424(19) 0.074(2) Uani 1 2 d S . .
N6 N 0.5188(3) 0.1864(2) 0.1864(2) 0.126(3) Uani 1 2 d SU . .
N14 N 0.6648(2) 0.1233(2) 0.1976(2) 0.1150(19) Uani 1 1 d . . .
N8 N 0.5316(3) 0.3339(2) 0.3339(2) 0.179(5) Uani 1 2 d S . .
N15 N 0.6532(2) 0.0869(3) 0.1756(2) 0.140(2) Uani 1 1 d . . .
N17 N 0.70287(16) 0.06837(16) 0.22310(17) 0.0881(15) Uani 1 1 d . . .
N10 N 0.4669(4) 0.3102(3) 0.3102(3) 0.167(4) Uani 1 2 d SU . .
N5 N 0.5580(3) 0.17421(17) 0.17421(17) 0.121(3) Uani 1 2 d S . .
N9 N 0.4864(4) 0.3363(4) 0.3363(4) 0.253(8) Uani 1 2 d S . .

loop_
_atom_site_aniso_label
_atom_site_aniso_U_11
_atom_site_aniso_U_22
_atom_site_aniso_U_33
_atom_site_aniso_U_23
_atom_site_aniso_U_13
_atom_site_aniso_U_12
Zn1 0.0522(3) 0.0522(3) 0.0522(3) 0.0003(4) -0.0003(4) -0.0003(4)
Zn2 0.0613(5) 0.0893(4) 0.0893(4) -0.0176(6) -0.0062(3) -0.0062(3)
Zn3 0.0482(5) 0.1292(6) 0.1292(6) 0.0006(8) -0.0071(4) -0.0071(4)
N2 0.082(4) 0.064(2) 0.064(2) -0.015(3) -0.002(2) -0.002(2)
N1 0.067(4) 0.066(2) 0.066(2) -0.008(4) 0.005(2) 0.005(2)
C2 0.052(5) 0.097(4) 0.097(4) -0.025(5) 0.008(3) 0.008(3)
N3 0.046(3) 0.082(3) 0.082(3) -0.016(4) 0.009(2) 0.009(2)
C1 0.037(4) 0.079(3) 0.079(3) -0.011(5) 0.005(3) 0.005(3)
N13 0.087(3) 0.053(3) 0.096(3) 0.014(3) 0.012(3) -0.002(3)
N4 0.068(4) 0.107(3) 0.107(3) -0.013(5) -0.025(3) -0.025(3)
N12 0.103(3) 0.042(4) 0.103(3) -0.005(3) -0.002(4) 0.005(3)
C6 0.096(4) 0.049(3) 0.090(5) -0.005(3) 0.009(4) 0.004(3)
N16 0.168(6) 0.107(5) 0.142(6) -0.023(4) -0.052(5) -0.016(5)
C5 0.088(4) 0.047(3) 0.091(4) -0.005(3) 0.020(3) 0.005(3)
C4 0.093(7) 0.130(5) 0.130(5) -0.038(7) -0.019(4) -0.019(4)
N7 0.054(4) 0.118(4) 0.118(4) -0.024(5) 0.000(3) 0.000(3)
N11 0.056(4) 0.149(4) 0.149(4) -0.034(5) 0.002(3) 0.002(3)
C3 0.041(4) 0.090(4) 0.090(4) -0.010(5) 0.004(3) 0.004(3)
N6 0.083(5) 0.148(4) 0.148(4) -0.026(5) -0.016(3) -0.016(3)
N14 0.118(5) 0.116(5) 0.111(5) 0.019(4) -0.008(4) 0.010(4)
N8 0.072(6) 0.232(7) 0.232(7) -0.101(10) 0.016(4) 0.016(4)
N15 0.133(6) 0.145(7) 0.143(6) -0.016(5) -0.032(5) -0.016(5)
N17 0.094(4) 0.068(3) 0.102(4) 0.000(3) -0.017(3) -0.005(3)
N10 0.137(6) 0.182(5) 0.182(5) -0.047(5) -0.002(4) -0.002(4)
N5 0.068(5) 0.148(5) 0.148(5) -0.065(6) -0.001(3) -0.001(3)
N9 0.123(10) 0.318(12) 0.318(12) -0.051(15) 0.096(8) 0.096(8)

_geom_special_details            
;
 All s.u.'s (except the s.u. in the dihedral angle between two l.s. planes)
 are estimated using the full covariance matrix.  The cell s.u.'s are taken
 into account individually in the estimation of s.u.'s in distances, angles
 and torsion angles; correlations between s.u.'s in cell parameters are only
 used when they are defined by crystal symmetry.  An approximate (isotropic)
 treatment of cell s.u.'s is used for estimating s.u.'s involving l.s. planes.
;

loop_
_geom_bond_atom_site_label_1
_geom_bond_atom_site_label_2
_geom_bond_distance
_geom_bond_site_symmetry_2
_geom_bond_publ_flag
Zn1 N2 2.110(6) . ?
Zn1 N2 2.110(6) 8_656 ?
Zn1 N2 2.110(6) 7_665 ?
Zn1 N12 2.311(6) 7_665 ?
Zn1 N12 2.311(6) . ?
Zn1 N12 2.311(6) 8_656 ?
Zn2 N4 2.033(7) . ?
Zn2 N13 2.164(5) 17 ?
Zn2 N13 2.164(5) . ?
Zn2 N1 2.329(6) . ?
Zn2 N14 2.363(6) . ?
Zn2 N14 2.363(6) 17 ?
Zn3 N7 1.978(7) . ?
Zn3 N11 1.971(9) . ?
Zn3 N17 1.996(5) 39_545 ?
Zn3 N17 1.996(5) 34_554 ?
N2 N3 1.293(7) . ?
N2 N1 1.334(7) . ?
N1 C1 1.328(8) . ?
C2 N3 1.342(9) . ?
C2 C1 1.333(10) . ?
C2 C4 1.420(12) . ?
C1 C3 1.470(10) . ?
N13 N12 1.312(5) . ?
N13 C5 1.324(6) . ?
N4 C3 1.352(10) . ?
N4 N5 1.374(9) . ?
N12 N13 1.312(5) 24_656 ?
C6 N14 1.305(7) . ?
C6 N17 1.335(6) . ?
C6 C5 1.416(7) . ?
N16 N15 1.281(8) . ?
N16 N17 1.375(7) . ?
C5 C5 1.375(11) 24_656 ?
C4 N11 1.357(11) . ?
C4 N8 1.466(13) . ?
N7 C3 1.302(9) . ?
N7 N6 1.366(10) . ?
N11 N10 1.291(12) . ?
N6 N5 1.307(10) . ?
N14 N15 1.346(8) . ?
N8 N9 1.382(13) . ?
N17 Zn3 1.996(5) 33 ?
N10 N9 1.273(17) . ?

loop_
_geom_angle_atom_site_label_1
_geom_angle_atom_site_label_2
_geom_angle_atom_site_label_3
_geom_angle
_geom_angle_site_symmetry_1
_geom_angle_site_symmetry_3
_geom_angle_publ_flag
N2 Zn1 N2 97.5(2) . 8_656 ?
N2 Zn1 N2 97.5(2) . 7_665 ?
N2 Zn1 N2 97.5(2) 8_656 7_665 ?
N2 Zn1 N12 89.97(17) . 7_665 ?
N2 Zn1 N12 168.7(2) 8_656 7_665 ?
N2 Zn1 N12 89.97(17) 7_665 7_665 ?
N2 Zn1 N12 89.97(17) . . ?
N2 Zn1 N12 89.97(17) 8_656 . ?
N2 Zn1 N12 168.7(2) 7_665 . ?
N12 Zn1 N12 81.5(3) 7_665 . ?
N2 Zn1 N12 168.7(2) . 8_656 ?
N2 Zn1 N12 89.97(17) 8_656 8_656 ?
N2 Zn1 N12 89.97(17) 7_665 8_656 ?
N12 Zn1 N12 81.5(3) 7_665 8_656 ?
N12 Zn1 N12 81.5(3) . 8_656 ?
N4 Zn2 N13 131.00(15) . 17 ?
N4 Zn2 N13 131.00(15) . . ?
N13 Zn2 N13 85.7(2) 17 . ?
N4 Zn2 N1 73.7(3) . . ?
N13 Zn2 N1 82.55(16) 17 . ?
N13 Zn2 N1 82.55(16) . . ?
N4 Zn2 N14 96.4(2) . . ?
N13 Zn2 N14 128.77(19) 17 . ?
N13 Zn2 N14 72.8(2) . . ?
N1 Zn2 N14 136.76(15) . . ?
N4 Zn2 N14 96.4(2) . 17 ?
N13 Zn2 N14 72.8(2) 17 17 ?
N13 Zn2 N14 128.77(19) . 17 ?
N1 Zn2 N14 136.76(15) . 17 ?
N14 Zn2 N14 85.4(3) . 17 ?
N7 Zn3 N11 104.4(3) . . ?
N7 Zn3 N17 112.06(18) . 39_545 ?
N11 Zn3 N17 111.06(19) . 39_545 ?
N7 Zn3 N17 112.06(18) . 34_554 ?
N11 Zn3 N17 111.06(19) . 34_554 ?
N17 Zn3 N17 106.3(3) 39_545 34_554 ?
N3 N2 N1 109.6(6) . . ?
N3 N2 Zn1 132.6(5) . . ?
N1 N2 Zn1 117.8(4) . . ?
C1 N1 N2 107.5(6) . . ?
C1 N1 Zn2 113.3(5) . . ?
N2 N1 Zn2 139.2(4) . . ?
N3 C2 C1 108.3(7) . . ?
N3 C2 C4 119.9(8) . . ?
C1 C2 C4 131.8(8) . . ?
N2 N3 C2 107.4(6) . . ?
N1 C1 C2 107.2(7) . . ?
N1 C1 C3 114.9(7) . . ?
C2 C1 C3 137.9(7) . . ?
N12 N13 C5 111.6(5) . . ?
N12 N13 Zn2 129.8(3) . . ?
C5 N13 Zn2 118.2(4) . . ?
C3 N4 N5 105.0(6) . . ?
C3 N4 Zn2 121.9(5) . . ?
N5 N4 Zn2 133.1(6) . . ?
N13 N12 N13 105.6(6) . 24_656 ?
N13 N12 Zn1 127.1(3) . . ?
N13 N12 Zn1 127.1(3) 24_656 . ?
N14 C6 N17 111.4(6) . . ?
N14 C6 C5 120.3(6) . . ?
N17 C6 C5 128.3(6) . . ?
N15 N16 N17 109.7(6) . . ?
N13 C5 C5 105.6(3) . 24_656 ?
N13 C5 C6 117.7(5) . . ?
C5 C5 C6 136.5(3) 24_656 . ?
N11 C4 C2 128.2(9) . . ?
N11 C4 N8 106.3(9) . . ?
C2 C4 N8 125.6(8) . . ?
C3 N7 N6 104.6(7) . . ?
C3 N7 Zn3 130.2(6) . . ?
N6 N7 Zn3 125.2(6) . . ?
N10 N11 C4 110.2(9) . . ?
N10 N11 Zn3 113.8(7) . . ?
C4 N11 Zn3 136.0(7) . . ?
N7 C3 N4 112.2(7) . . ?
N7 C3 C1 131.6(7) . . ?
N4 C3 C1 116.2(7) . . ?
N5 N6 N7 111.1(8) . . ?
C6 N14 N15 106.3(6) . . ?
C6 N14 Zn2 110.7(5) . . ?
N15 N14 Zn2 142.8(6) . . ?
N9 N8 C4 100.3(10) . . ?
N16 N15 N14 109.0(7) . . ?
C6 N17 N16 103.6(5) . . ?
C6 N17 Zn3 131.9(4) . 33 ?
N16 N17 Zn3 124.4(5) . 33 ?
N11 N10 N9 109.6(11) . . ?
N6 N5 N4 107.2(7) . . ?
N10 N9 N8 113.6(11) . . ?

loop_
_geom_torsion_atom_site_label_1
_geom_torsion_atom_site_label_2
_geom_torsion_atom_site_label_3
_geom_torsion_atom_site_label_4
_geom_torsion
_geom_torsion_site_symmetry_1
_geom_torsion_site_symmetry_2
_geom_torsion_site_symmetry_3
_geom_torsion_site_symmetry_4
_geom_torsion_publ_flag
N2 Zn1 N2 N3 49.30(14) 8_656 . . . ?
N2 Zn1 N2 N3 -49.30(14) 7_665 . . . ?
N12 Zn1 N2 N3 -139.27(13) 7_665 . . . ?
N12 Zn1 N2 N3 139.26(13) . . . . ?
N12 Zn1 N2 N3 180.000(7) 8_656 . . . ?
N2 Zn1 N2 N1 -130.70(14) 8_656 . . . ?
N2 Zn1 N2 N1 130.70(14) 7_665 . . . ?
N12 Zn1 N2 N1 40.74(13) 7_665 . . . ?
N12 Zn1 N2 N1 -40.73(13) . . . . ?
N12 Zn1 N2 N1 0.001(1) 8_656 . . . ?
N3 N2 N1 C1 0.0 . . . . ?
Zn1 N2 N1 C1 180.0 . . . . ?
N3 N2 N1 Zn2 180.0 . . . . ?
Zn1 N2 N1 Zn2 0.0 . . . . ?
N4 Zn2 N1 C1 0.0 . . . . ?
N13 Zn2 N1 C1 136.69(11) 17 . . . ?
N13 Zn2 N1 C1 -136.69(11) . . . . ?
N14 Zn2 N1 C1 -81.8(3) . . . . ?
N14 Zn2 N1 C1 81.8(3) 17 . . . ?
N4 Zn2 N1 N2 180.0 . . . . ?
N13 Zn2 N1 N2 -43.31(11) 17 . . . ?
N13 Zn2 N1 N2 43.31(11) . . . . ?
N14 Zn2 N1 N2 98.2(3) . . . . ?
N14 Zn2 N1 N2 -98.2(3) 17 . . . ?
N1 N2 N3 C2 0.0 . . . . ?
Zn1 N2 N3 C2 180.0 . . . . ?
C1 C2 N3 N2 0.0 . . . . ?
C4 C2 N3 N2 180.0 . . . . ?
N2 N1 C1 C2 0.0 . . . . ?
Zn2 N1 C1 C2 180.0 . . . . ?
N2 N1 C1 C3 180.0 . . . . ?
Zn2 N1 C1 C3 0.0 . . . . ?
N3 C2 C1 N1 0.0 . . . . ?
C4 C2 C1 N1 180.0 . . . . ?
N3 C2 C1 C3 180.0 . . . . ?
C4 C2 C1 C3 -0.001(1) . . . . ?
N4 Zn2 N13 N12 -100.2(6) . . . . ?
N13 Zn2 N13 N12 43.5(6) 17 . . . ?
N1 Zn2 N13 N12 -39.5(5) . . . . ?
N14 Zn2 N13 N12 176.4(6) . . . . ?
N14 Zn2 N13 N12 107.4(6) 17 . . . ?
N4 Zn2 N13 C5 87.5(5) . . . . ?
N13 Zn2 N13 C5 -128.7(3) 17 . . . ?
N1 Zn2 N13 C5 148.3(4) . . . . ?
N14 Zn2 N13 C5 4.2(4) . . . . ?
N14 Zn2 N13 C5 -64.9(5) 17 . . . ?
N13 Zn2 N4 C3 -64.3(2) 17 . . . ?
N13 Zn2 N4 C3 64.3(2) . . . . ?
N1 Zn2 N4 C3 0.0 . . . . ?
N14 Zn2 N4 C3 136.98(16) . . . . ?
N14 Zn2 N4 C3 -136.98(16) 17 . . . ?
N13 Zn2 N4 N5 115.7(2) 17 . . . ?
N13 Zn2 N4 N5 -115.7(2) . . . . ?
N1 Zn2 N4 N5 180.0 . . . . ?
N14 Zn2 N4 N5 -43.02(16) . . . . ?
N14 Zn2 N4 N5 43.02(16) 17 . . . ?
C5 N13 N12 N13 0.0(8) . . . 24_656 ?
Zn2 N13 N12 N13 -172.59(17) . . . 24_656 ?
C5 N13 N12 Zn1 175.2(4) . . . . ?
Zn2 N13 N12 Zn1 2.6(9) . . . . ?
N2 Zn1 N12 N13 44.2(6) . . . . ?
N2 Zn1 N12 N13 141.7(6) 8_656 . . . ?
N2 Zn1 N12 N13 -87.1(6) 7_665 . . . ?
N12 Zn1 N12 N13 -45.8(7) 7_665 . . . ?
N12 Zn1 N12 N13 -128.4(5) 8_656 . . . ?
N2 Zn1 N12 N13 -141.7(6) . . . 24_656 ?
N2 Zn1 N12 N13 -44.2(6) 8_656 . . 24_656 ?
N2 Zn1 N12 N13 87.1(6) 7_665 . . 24_656 ?
N12 Zn1 N12 N13 128.4(5) 7_665 . . 24_656 ?
N12 Zn1 N12 N13 45.8(7) 8_656 . . 24_656 ?
N12 N13 C5 C5 0.0(5) . . . 24_656 ?
Zn2 N13 C5 C5 173.56(19) . . . 24_656 ?
N12 N13 C5 C6 -176.8(5) . . . . ?
Zn2 N13 C5 C6 -3.2(6) . . . . ?
N14 C6 C5 N13 -1.6(8) . . . . ?
N17 C6 C5 N13 179.9(5) . . . . ?
N14 C6 C5 C5 -177.2(4) . . . 24_656 ?
N17 C6 C5 C5 4.4(9) . . . 24_656 ?
N3 C2 C4 N11 180.004(1) . . . . ?
C1 C2 C4 N11 0.006(2) . . . . ?
N3 C2 C4 N8 -0.003(2) . . . . ?
C1 C2 C4 N8 180.0 . . . . ?
N11 Zn3 N7 C3 0.0 . . . . ?
N17 Zn3 N7 C3 -120.30(18) 39_545 . . . ?
N17 Zn3 N7 C3 120.30(18) 34_554 . . . ?
N11 Zn3 N7 N6 180.0 . . . . ?
N17 Zn3 N7 N6 59.70(18) 39_545 . . . ?
N17 Zn3 N7 N6 -59.70(18) 34_554 . . . ?
C2 C4 N11 N10 179.994(1) . . . . ?
N8 C4 N11 N10 0.000(2) . . . . ?
C2 C4 N11 Zn3 -0.008(3) . . . . ?
N8 C4 N11 Zn3 180.0 . . . . ?
N7 Zn3 N11 N10 180.003(1) . . . . ?
N17 Zn3 N11 N10 -59.03(17) 39_545 . . . ?
N17 Zn3 N11 N10 59.04(17) 34_554 . . . ?
N7 Zn3 N11 C4 0.004(2) . . . . ?
N17 Zn3 N11 C4 120.97(17) 39_545 . . . ?
N17 Zn3 N11 C4 -120.96(17) 34_554 . . . ?
N6 N7 C3 N4 0.0 . . . . ?
Zn3 N7 C3 N4 180.0 . . . . ?
N6 N7 C3 C1 180.0 . . . . ?
Zn3 N7 C3 C1 0.0 . . . . ?
N5 N4 C3 N7 0.0 . . . . ?
Zn2 N4 C3 N7 180.0 . . . . ?
N5 N4 C3 C1 180.0 . . . . ?
Zn2 N4 C3 C1 0.0 . . . . ?
N1 C1 C3 N7 180.0 . . . . ?
C2 C1 C3 N7 0.0 . . . . ?
N1 C1 C3 N4 0.0 . . . . ?
C2 C1 C3 N4 180.0 . . . . ?
C3 N7 N6 N5 0.0 . . . . ?
Zn3 N7 N6 N5 180.0 . . . . ?
N17 C6 N14 N15 0.1(8) . . . . ?
C5 C6 N14 N15 -178.6(6) . . . . ?
N17 C6 N14 Zn2 -176.3(4) . . . . ?
C5 C6 N14 Zn2 5.0(7) . . . . ?
N4 Zn2 N14 C6 -135.8(4) . . . . ?
N13 Zn2 N14 C6 64.8(5) 17 . . . ?
N13 Zn2 N14 C6 -4.7(4) . . . . ?
N1 Zn2 N14 C6 -62.9(6) . . . . ?
N14 Zn2 N14 C6 128.3(4) 17 . . . ?
N4 Zn2 N14 N15 49.9(8) . . . . ?
N13 Zn2 N14 N15 -109.5(8) 17 . . . ?
N13 Zn2 N14 N15 -179.0(8) . . . . ?
N1 Zn2 N14 N15 122.8(8) . . . . ?
N14 Zn2 N14 N15 -46.0(9) 17 . . . ?
N11 C4 N8 N9 0.004(1) . . . . ?
C2 C4 N8 N9 -179.991(1) . . . . ?
N17 N16 N15 N14 2.0(9) . . . . ?
C6 N14 N15 N16 -1.3(9) . . . . ?
Zn2 N14 N15 N16 173.1(6) . . . . ?
N14 C6 N17 N16 1.0(7) . . . . ?
C5 C6 N17 N16 179.6(6) . . . . ?
N14 C6 N17 Zn3 176.0(4) . . . 33 ?
C5 C6 N17 Zn3 -5.4(10) . . . 33 ?
N15 N16 N17 C6 -1.8(8) . . . . ?
N15 N16 N17 Zn3 -177.3(5) . . . 33 ?
C4 N11 N10 N9 -0.004(2) . . . . ?
Zn3 N11 N10 N9 179.998(1) . . . . ?
N7 N6 N5 N4 0.0 . . . . ?
C3 N4 N5 N6 0.0 . . . . ?
Zn2 N4 N5 N6 180.0 . . . . ?
N11 N10 N9 N8 0.006(1) . . . . ?
C4 N8 N9 N10 -0.006(2) . . . . ?

_diffrn_measured_fraction_theta_max 0.998
_diffrn_reflns_theta_full        25.00
_diffrn_measured_fraction_theta_full 0.999
_refine_diff_density_max         0.298
_refine_diff_density_min         -0.267
_refine_diff_density_rms         0.039
