####################################################################### 
# 
# This file contains crystal structure data downloaded from the 
# Cambridge Structural Database (CSD) hosted by the Cambridge 
# Crystallographic Data Centre (CCDC).
# 
# Full information about CCDC data access policies and citation 
# guidelines are available at http://www.ccdc.cam.ac.uk/access/V1 
# 
# Audit and citation data items may have been added by the CCDC. 
# Please retain this information to preserve the provenance of 
# this file and to allow appropriate attribution of the data. 
# 
#######################################################################

data_AlPTC1
_audit_block_doi                 10.5517/cc147d3w
_database_code_depnum_ccdc_archive 'CCDC 1049787'
loop_
_citation_id
_citation_doi
_citation_year
1 10.1021/cg501189n 2014
_audit_update_record             
;
2015-02-16 deposited with the CCDC.	2024-07-14 downloaded from the CCDC.
;

#==============================================================================
# Chemical + Structural + Crystal Information
#==============================================================================
_chemical_formula_moiety         'C16 Al3 N2 O17, 4(O)'
# Note: _chemical_formula_sum/_weight/_cell_formula_units_Z need to be 
# recalculated if any one is changed
_chemical_formula_sum            'C16 Al3 N2 O21'
_chemical_formula_weight         637.118714
_cell_formula_units_Z            4
_pd_char_colour                  white
_exptl_crystal_density_diffrn    1.607
_exptl_crystal_density_meas      'Not measured'
_exptl_crystal_density_method    'Not measured'
_cell_measurement_temperature    100

#==============================================================================
# Instrument + Refinement Information
#==============================================================================
_diffrn_ambient_temperature      100
_diffrn_measurement_device_type  'P08, PETRA III, DESY, Hamburg, Germany'
_diffrn_radiation_probe          x-ray
_diffrn_radiation_wavelength     0.827164
_diffrn_radiation_type           synchrotron
_pd_proc_ls_prof_R_factor        0.0492
_pd_proc_ls_prof_wR_factor       0.0680
_pd_proc_ls_prof_wR_expected     0.0620
_refine_ls_R_I_factor            0.0300
_refine_ls_goodness_of_fit_all   1.09523
_refine_ls_shift/su_max          0.001
_refine_ls_number_parameters     84
_refine_ls_number_restraints     37
_refine_diff_density_max         ? #Highest Fourier peak
_refine_diff_density_min         ? #Deepest Fourier hole

#==============================================================================
# Phase Information
#==============================================================================
_cell_length_a                   37.1330(13)
_cell_length_b                   11.5278(4)
_cell_length_c                   6.51553(18)
_cell_angle_alpha                90
_cell_angle_beta                 109.266(3)
_cell_angle_gamma                90
_cell_volume                     2632.85(15)
_symmetry_cell_setting           monoclinic
_symmetry_space_group_name_H-M   'C 2/c'
_symmetry_space_group_name_Hall  '-C 2yc'
_space_group_IT_number           15
loop_
_symmetry_equiv_pos_as_xyz
'x, y, z '
'-x, y, -z+1/2 '
'x, -y, z+1/2 '
'-x, -y, -z '
'x+1/2, y+1/2, z '
'-x+1/2, y+1/2, -z+1/2 '
'x+1/2, -y+1/2, z+1/2 '
'-x+1/2, -y+1/2, -z '

# Atomic coordinates & thermal parameters
loop_
_atom_site_label
_atom_site_type_symbol
_atom_site_symmetry_multiplicity
_atom_site_fract_x
_atom_site_fract_y
_atom_site_fract_z
_atom_site_occupancy
_atom_site_B_iso_or_equiv
Al1 Al 0 0.2209(4) 0.2837(10) 0.571(2) 1 0.65(15)
Al2 Al 0 0 0 0 1 0.65(15)
O1 O 0 0.1941(6) 0.3948(18) 0.354(4) 1 0.65(15)
O2 O 0 0.1359(6) 0.4508(17) 0.091(4) 1 0.65(15)
O3 O 0 0.2268(6) 0.1698(17) 0.810(4) 1 0.65(15)
O4 O 0 0.1959(6) 0.027(2) 0.919(4) 1 0.65(15)
O5 O 0 0.0348(6) 0.1247(18) 0.128(3) 1 0.65(15)
O6 O 0 0.0423(6) 0.0939(19) 0.495(3) 1 0.65(15)
O7 O 0 0.2295(6) 0.1784(17) 0.382(3) 1 0.65(15)
O8 O 0 0.2257(6) 0.3955(16) 0.799(4) 1 0.65(15)
O9 O 0 0 -0.076(2) 0.25 1 0.65(15)
N1 N 0 0.1666(8) 0.248(2) 0.502(5) 1 0.65(15)
C1 C 0 0.1585(10) 0.401(3) 0.252(5) 1 0.65(15)
C2 C 0 0.1417(10) 0.296(3) 0.326(6) 1 0.65(15)
C3 C 0 0.1028(10) 0.256(3) 0.265(6) 1 0.65(15)
C4 C 0 0.0928(10) 0.185(3) 0.410(6) 1 0.65(15)
C5 C 0 0.1210(10) 0.128(3) 0.581(6) 1 0.65(15)
C6 C 0 0.1594(10) 0.158(3) 0.621(6) 1 0.65(15)
C7 C 0 0.1950(10) 0.113(3) 0.798(6) 1 0.65(15)
C8 C 0 0.0527(9) 0.131(3) 0.336(6) 1 0.65(15)
O101 O 0 0.0531(6) 0.510(2) 0.868(5) 1 7.2(7)
O102 O 0 0.0153(7) 0.3437(18) 0.649(4) 1 7.2(7)

# Molecular Geometry
loop_
_geom_bond_atom_site_label_1
_geom_bond_atom_site_label_2
_geom_bond_distance
_geom_bond_site_symmetry_1
_geom_bond_site_symmetry_2
Al1 O7 1.82(3) 1_555 8_556
Al1 O7 1.83(3) 1_555 1_555
Al1 O1 1.92(2) 1_555 1_555
Al1 O8 1.93(3) 1_555 1_555
Al1 N1 1.96(3) 1_555 1_555
Al1 O3 1.99(3) 1_555 1_555
Al2 O9 1.847(13) 1_555 1_555
Al2 O9 1.847(13) 1_555 3_554
Al2 O6 1.92(2) 1_555 2_555
Al2 O6 1.92(2) 1_555 3_554
Al2 O5 1.93(2) 1_555 4_555
Al2 O5 1.93(2) 1_555 1_555
O1 C1 1.27(4) 1_555 1_555
O1 Al1 1.92(2) 1_555 1_555
O2 C1 1.24(4) 1_555 1_555
O3 C7 1.33(4) 1_555 1_555
O3 Al1 1.99(3) 1_555 1_555
O4 C7 1.26(4) 1_555 1_555
O5 C8 1.30(4) 1_555 1_555
O5 Al2 1.93(2) 1_555 1_555
O6 C8 1.29(5) 1_555 1_555
O6 Al2 1.92(2) 1_555 2_555
O7 Al1 1.82(3) 1_555 8_556
O7 Al1 1.83(3) 1_555 1_555
O8 Al1 1.93(3) 1_555 1_555
O9 Al2 1.847(13) 1_555 1_555
O9 Al2 1.847(13) 1_555 2_555
N1 C2 1.33(4) 1_555 1_555
N1 C6 1.38(5) 1_555 1_555
N1 Al1 1.96(3) 1_555 1_555
C1 O2 1.24(4) 1_555 1_555
C1 O1 1.27(4) 1_555 1_555
C1 C2 1.51(5) 1_555 1_555
C2 N1 1.33(4) 1_555 1_555
C2 C3 1.44(5) 1_555 1_555
C2 C1 1.51(5) 1_555 1_555
C3 C4 1.39(6) 1_555 1_555
C3 C2 1.44(5) 1_555 1_555
C4 C3 1.39(6) 1_555 1_555
C4 C5 1.42(5) 1_555 1_555
C4 C8 1.54(5) 1_555 1_555
C5 C6 1.41(5) 1_555 1_555
C5 C4 1.42(5) 1_555 1_555
C6 N1 1.38(5) 1_555 1_555
C6 C5 1.41(5) 1_555 1_555
C6 C7 1.53(4) 1_555 1_555
C7 O4 1.26(4) 1_555 1_555
C7 O3 1.33(4) 1_555 1_555
C7 C6 1.53(4) 1_555 1_555
C8 O6 1.29(5) 1_555 1_555
C8 O5 1.30(4) 1_555 1_555
C8 C4 1.54(5) 1_555 1_555
loop_
_geom_angle_atom_site_label_1
_geom_angle_atom_site_label_2
_geom_angle_atom_site_label_3
_geom_angle
_geom_angle_site_symmetry_1
_geom_angle_site_symmetry_2
_geom_angle_site_symmetry_3
O7 Al1 O7 83.2(11) 1_555 1_555 8_556
O1 Al1 O7 96.4(11) 1_555 1_555 1_555
O1 Al1 O7 102.3(11) 1_555 1_555 8_556
O8 Al1 O1 90.8(10) 1_555 1_555 1_555
O8 Al1 O7 165.6(12) 1_555 1_555 1_555
O8 Al1 O7 83.1(11) 1_555 1_555 8_556
N1 Al1 O8 98.1(14) 1_555 1_555 1_555
N1 Al1 O1 74.0(12) 1_555 1_555 1_555
N1 Al1 O7 95.9(13) 1_555 1_555 1_555
N1 Al1 O7 176.2(13) 1_555 1_555 8_556
O3 Al1 N1 83.2(12) 1_555 1_555 1_555
O3 Al1 O8 83.1(10) 1_555 1_555 1_555
O3 Al1 O1 155.3(13) 1_555 1_555 1_555
O3 Al1 O7 95.2(11) 1_555 1_555 1_555
O3 Al1 O7 100.6(10) 1_555 1_555 8_556
O9 Al2 O9 180.000 3_554 1_555 1_555
O6 Al2 O9 89.2(8) 2_555 1_555 3_554
O6 Al2 O9 90.8(8) 2_555 1_555 1_555
O6 Al2 O6 180.000 3_554 1_555 2_555
O6 Al2 O9 90.8(8) 3_554 1_555 3_554
O6 Al2 O9 89.2(8) 3_554 1_555 1_555
O5 Al2 O6 90.5(9) 4_555 1_555 3_554
O5 Al2 O6 89.5(9) 4_555 1_555 2_555
O5 Al2 O9 99.5(9) 4_555 1_555 3_554
O5 Al2 O9 80.5(9) 4_555 1_555 1_555
O5 Al2 O5 180.000 1_555 1_555 4_555
O5 Al2 O6 89.5(9) 1_555 1_555 3_554
O5 Al2 O6 90.5(9) 1_555 1_555 2_555
O5 Al2 O9 80.5(9) 1_555 1_555 3_554
O5 Al2 O9 99.5(9) 1_555 1_555 1_555
Al1 O1 C1 128(2) 1_555 1_555 1_555
Al1 O3 C7 114.2(19) 1_555 1_555 1_555
Al2 O5 C8 122(2) 1_555 1_555 1_555
Al2 O6 C8 131.6(19) 2_555 1_555 1_555
Al1 O7 Al1 96.8(11) 1_555 1_555 8_556
Al2 O9 Al2 123.7(16) 2_555 1_555 1_555
C6 N1 C2 126(3) 1_555 1_555 1_555
Al1 N1 C6 114(2) 1_555 1_555 1_555
Al1 N1 C2 119(3) 1_555 1_555 1_555
O1 C1 O2 140(4) 1_555 1_555 1_555
C2 C1 O1 105(3) 1_555 1_555 1_555
C2 C1 O2 114(3) 1_555 1_555 1_555
C3 C2 N1 117(3) 1_555 1_555 1_555
C1 C2 C3 131(3) 1_555 1_555 1_555
C1 C2 N1 111(3) 1_555 1_555 1_555
C2 C3 C4 118(3) 1_555 1_555 1_555
C5 C4 C3 121(3) 1_555 1_555 1_555
C8 C4 C5 117(3) 1_555 1_555 1_555
C8 C4 C3 118(3) 1_555 1_555 1_555
C4 C5 C6 118(3) 1_555 1_555 1_555
C5 C6 N1 117(3) 1_555 1_555 1_555
C7 C6 C5 129(3) 1_555 1_555 1_555
C7 C6 N1 114(3) 1_555 1_555 1_555
O3 C7 O4 121(3) 1_555 1_555 1_555
C6 C7 O3 114(3) 1_555 1_555 1_555
C6 C7 O4 125(3) 1_555 1_555 1_555
O5 C8 O6 129(3) 1_555 1_555 1_555
C4 C8 O5 117(3) 1_555 1_555 1_555
C4 C8 O6 113(3) 1_555 1_555 1_555


#==============================================================================
# PD Data Block - Obs + Calc
#==============================================================================
_pd_proc_2theta_range_min        1.50018
_pd_proc_2theta_range_max        41.00018
_pd_proc_2theta_range_inc        0.005
_pd_meas_number_of_points        7901
loop_
_pd_proc_point_id
_pd_meas_2theta_scan
_pd_proc_intensity_total
_pd_calc_intensity_total
_pd_proc_ls_weight
1 1.50018 404.59194 426.50799 0.00234
2 1.50518 404.90731 432.49464 0.00231
3 1.51018 405.22135 434.02616 0.00230
4 1.51518 405.53405 439.45365 0.00228
5 1.52018 405.84543 417.43561 0.00240
6 1.52518 406.15549 409.79447 0.00244
7 1.53018 406.46423 414.39495 0.00241
8 1.53518 406.77166 428.80210 0.00233
9 1.54018 407.07777 390.51213 0.00256
10 1.54518 407.38259 412.94916 0.00242
11 1.55018 407.68610 417.87846 0.00239
12 1.55518 407.98831 416.42459 0.00240
13 1.56018 408.28923 420.13924 0.00238
14 1.56518 408.58886 416.52015 0.00240
15 1.57018 408.88720 408.28350 0.00245
16 1.57518 409.18427 401.59963 0.00249
17 1.58018 409.48005 417.17836 0.00240
18 1.58518 409.77457 418.54228 0.00239
19 1.59018 410.06781 404.60119 0.00247
20 1.59518 410.35979 391.59282 0.00255
21 1.60018 410.65050 387.66608 0.00258
22 1.60518 410.93996 419.03868 0.00239
23 1.61018 411.22817 433.43465 0.00231
24 1.61518 411.51513 421.74944 0.00237
25 1.62018 411.80084 428.68280 0.00233
26 1.62518 412.08531 410.94847 0.00243
27 1.63018 412.36854 410.90589 0.00243
28 1.63518 412.65054 404.67414 0.00247
29 1.64018 412.93131 414.10295 0.00241
30 1.64518 413.21085 427.79407 0.00234
31 1.65018 413.48918 423.88944 0.00236
32 1.65518 413.76628 403.26639 0.00248
33 1.66018 414.04217 411.49415 0.00243
34 1.66518 414.31685 438.78231 0.00228
35 1.67018 414.59033 434.43714 0.00230
36 1.67518 414.86260 405.88864 0.00246
37 1.68018 415.13368 395.49248 0.00253
38 1.68518 415.40356 396.33514 0.00252
39 1.69018 415.67225 430.63069 0.00232
40 1.69518 415.93975 416.43652 0.00240
41 1.70018 416.20607 407.52275 0.00245
42 1.70518 416.47122 416.64338 0.00240
43 1.71018 416.73519 405.26415 0.00247
44 1.71518 416.99799 386.91348 0.00258
45 1.72018 417.25962 414.82822 0.00241
46 1.72518 417.52009 427.05873 0.00234
47 1.73018 417.77940 409.66069 0.00244
48 1.73518 418.03755 425.67852 0.00235
49 1.74018 418.29456 409.67188 0.00244
50 1.74518 418.55042 432.88482 0.00231
51 1.75018 418.80513 475.94092 0.00210
52 1.75518 419.05870 430.02161 0.00233
53 1.76018 419.31114 422.33751 0.00237
54 1.76518 419.56245 439.81563 0.00227
55 1.77018 419.81263 412.10958 0.00243
56 1.77518 420.06169 441.29221 0.00227
57 1.78018 420.30963 418.78324 0.00239
58 1.78518 420.55645 418.83399 0.00239
59 1.79018 420.80216 420.11125 0.00238
60 1.79518 421.04676 418.12118 0.00239
61 1.80018 421.29026 434.05442 0.00230
62 1.80518 421.53266 432.03769 0.00231
63 1.81018 421.77396 413.23917 0.00242
64 1.81518 422.01417 424.34291 0.00236
65 1.82018 422.25329 436.29573 0.00229
66 1.82518 422.49133 422.03940 0.00237
67 1.83018 422.72829 424.30397 0.00236
68 1.83518 422.96417 421.90122 0.00237
69 1.84018 423.19898 397.28824 0.00252
70 1.84518 423.43272 411.21010 0.00243
71 1.85018 423.66539 449.13035 0.00223
72 1.85518 423.89701 411.56690 0.00243
73 1.86018 424.12757 443.35165 0.00226
74 1.86518 424.35708 425.12124 0.00235
75 1.87018 424.58554 432.98863 0.00231
76 1.87518 424.81295 432.79948 0.00231
77 1.88018 425.03933 400.25931 0.00250
78 1.88518 425.26467 416.44283 0.00240
79 1.89018 425.48898 436.81779 0.00229
80 1.89518 425.71226 419.41914 0.00238
81 1.90018 425.93451 426.33231 0.00235
82 1.90518 426.15575 431.69560 0.00232
83 1.91018 426.37597 412.90993 0.00242
84 1.91518 426.59518 390.45912 0.00256
85 1.92018 426.81339 399.14816 0.00251
86 1.92518 427.03059 409.45885 0.00244
87 1.93018 427.24679 409.81611 0.00244
88 1.93518 427.46200 420.23366 0.00238
89 1.94018 427.67622 397.33117 0.00252
90 1.94518 427.88945 419.26646 0.00239
91 1.95018 428.10170 424.96455 0.00235
92 1.95518 428.31298 437.19483 0.00229
93 1.96018 428.52328 422.48202 0.00237
94 1.96518 428.73261 414.03527 0.00242
95 1.97018 428.94099 410.83472 0.00243
96 1.97518 429.14840 447.26024 0.00224
97 1.98018 429.35485 423.62785 0.00236
98 1.98518 429.56036 447.51536 0.00223
99 1.99018 429.76492 438.71447 0.00228
100 1.99518 429.96854 447.62190 0.00223
101 2.00018 430.17123 424.65239 0.00235
102 2.00518 430.37298 428.41813 0.00233
103 2.01018 430.57381 434.36702 0.00230
104 2.01518 430.77371 408.61909 0.00245
105 2.02018 430.97270 421.66998 0.00237
106 2.02518 431.17078 437.81136 0.00228
107 2.03018 431.36795 434.68699 0.00230
108 2.03518 431.56421 423.13396 0.00236
109 2.04018 431.75958 425.77557 0.00235
110 2.04518 431.95406 409.06699 0.00244
111 2.05018 432.14766 428.98858 0.00233
112 2.05518 432.34037 420.52305 0.00238
113 2.06018 432.53220 430.44339 0.00232
114 2.06518 432.72317 429.62761 0.00233
115 2.07018 432.91327 433.12612 0.00231
116 2.07518 433.10251 435.00128 0.00230
117 2.08018 433.29090 427.96748 0.00234
118 2.08518 433.47844 427.53061 0.00234
119 2.09018 433.66514 430.74850 0.00232
120 2.09518 433.85101 425.95782 0.00235
121 2.10018 434.03604 431.26500 0.00232
122 2.10518 434.22025 410.05887 0.00244
123 2.11018 434.40365 422.33214 0.00237
124 2.11518 434.58624 440.10750 0.00227
125 2.12018 434.76802 417.40363 0.00240
126 2.12518 434.94900 424.19815 0.00236
127 2.13018 435.12920 401.40089 0.00249
128 2.13518 435.30861 435.91073 0.00229
129 2.14018 435.48725 412.78307 0.00242
130 2.14518 435.66512 417.99881 0.00239
131 2.15018 435.84223 439.92081 0.00227
132 2.15518 436.01859 444.79950 0.00225
133 2.16018 436.19420 449.11488 0.00223
134 2.16518 436.36908 453.77836 0.00220
135 2.17018 436.54323 448.05183 0.00223
136 2.17518 436.71666 452.31768 0.00221
137 2.18018 436.88938 421.32449 0.00237
138 2.18518 437.06140 433.43678 0.00231
139 2.19018 437.23273 438.56078 0.00228
140 2.19518 437.40338 418.11228 0.00239
141 2.20018 437.57335 429.69193 0.00233
142 2.20518 437.74267 426.01731 0.00235
143 2.21018 437.91134 426.60032 0.00234
144 2.21518 438.07936 452.66382 0.00221
145 2.22018 438.24676 431.46515 0.00232
146 2.22518 438.41355 432.33117 0.00231
147 2.23018 438.57973 435.80241 0.00229
148 2.23518 438.74533 444.91328 0.00225
149 2.24018 438.91035 436.62423 0.00229
150 2.24518 439.07480 434.37438 0.00230
151 2.25018 439.23871 427.23624 0.00234
152 2.25518 439.40209 461.73726 0.00217
153 2.26018 439.56495 441.57452 0.00226
154 2.26518 439.72730 429.39376 0.00233
155 2.27018 439.88918 428.83521 0.00233
156 2.27518 440.05059 412.91992 0.00242
157 2.28018 440.21156 447.48795 0.00223
158 2.28518 440.37210 408.30795 0.00245
159 2.29018 440.53223 392.11457 0.00255
160 2.29518 440.69198 424.13444 0.00236
161 2.30018 440.85137 434.29463 0.00230
162 2.30518 441.01042 417.83353 0.00239
163 2.31018 441.16916 402.49377 0.00248
164 2.31518 441.32761 430.48280 0.00232
165 2.32018 441.48581 453.83271 0.00220
166 2.32518 441.64378 450.91985 0.00222
167 2.33018 441.80154 438.62646 0.00228
168 2.33518 441.95915 429.30018 0.00233
169 2.34018 442.11662 416.08289 0.00240
170 2.34518 442.27400 414.50948 0.00241
171 2.35018 442.43132 422.71056 0.00237
172 2.35518 442.58863 452.98205 0.00221
173 2.36018 442.74597 431.44403 0.00232
174 2.36518 442.90339 425.65935 0.00235
175 2.37018 443.06093 422.58009 0.00237
176 2.37