####################################################################### 
# 
# This file contains crystal structure data downloaded from the 
# Cambridge Structural Database (CSD) hosted by the Cambridge 
# Crystallographic Data Centre (CCDC).
# 
# Full information about CCDC data access policies and citation 
# guidelines are available at http://www.ccdc.cam.ac.uk/access/V1 
# 
# Audit and citation data items may have been added by the CCDC. 
# Please retain this information to preserve the provenance of 
# this file and to allow appropriate attribution of the data. 
# 
#######################################################################

data_compound_1
_audit_block_doi                 10.5517/cc112qkd
_database_code_depnum_ccdc_archive 'CCDC 955933'
loop_
_citation_id
_citation_doi
_citation_year
1 10.1021/ja1027925 2010
_audit_update_record             
;
2013-08-15 deposited with the CCDC.	2024-07-14 downloaded from the CCDC.
;


_audit_creation_method           'manually at CCDC'


_chemical_name_systematic        
;  

;
_chemical_formula_sum            ?
_chemical_formula_moiety         ?
_chemical_formula_weight         ?
_chemical_melting_point          ?

_symmetry_cell_setting           Cubic
_symmetry_space_group_name_H-M   Fm-3m


_cell_length_a                   26.66522(35)
_cell_length_b                   26.66522(35)
_cell_length_c                   26.66522(35)
_cell_angle_alpha                90
_cell_angle_beta                 90
_cell_angle_gamma                90
_cell_volume                     ?
_cell_formula_units_Z            ?

_exptl_crystal_density_diffrn    ?
_exptl_crystal_description       ?
_exptl_crystal_colour            ?
_exptl_special_details           
;

;

_diffrn_ambient_temperature      4
_diffrn_radiation_probe          x-ray

_refine_ls_R_factor_gt           ?
_refine_special_details          
; 

;

loop_
_atom_site_label
_atom_site_fract_x
_atom_site_fract_y
_atom_site_fract_z
_atom_site_U_iso_or_equiv
Cr1 0.27729(23) 0.27729(23) 0.0 0.004(2)
O11 0.31684(11) 0.24336(12) -0.05248(11) 0.0177(8)
C10 0.29671(10) 0.20329(10) -0.07085(15) 0.0224(4)
C1 0.32224(12) 0.17776(12) -0.11404(15) 0.0224(4)
C2 0.36461(11) 0.20056(18) -0.13539(11) 0.0224(4)
H1 0.37921(19) 0.23369(26) -0.12079(19) 0.0224(4)
